TITLE="EPhi"
VARIABLES="z", "r", "EPhi"
ZONE T="Ephi", I=40, J=2, DATAPACKING=BLOCK
-0.00167394 -0.00167394 -0.00167394 -0.00167394 -0.00167394 -0.00167394 -0.00167394 -0.00167394 -0.00167394 -0.00167394 -0.00167394 -0.00167394 -0.00167394 -0.00167394 -0.00167394 -0.00167394 -0.00167394 -0.00167394 -0.00167394 -0.00167394 -0.00167394 -0.00167394 -0.00167394 -0.00167394 -0.00167394 -0.00167394 -0.00167394 -0.00167394 -0.00167394 -0.00167394 -0.00167394 -0.00167394 -0.00167394 -0.00167394 -0.00167394 -0.00167394 -0.00167394 -0.00167394 -0.00167394 -0.00167394 -0.000673938 -0.000673938 -0.000673938 -0.000673938 -0.000673938 -0.000673938 -0.000673938 -0.000673938 -0.000673938 -0.000673938 -0.000673938 -0.000673938 -0.000673938 -0.000673938 -0.000673938 -0.000673938 -0.000673938 -0.000673938 -0.000673938 -0.000673938 -0.000673938 -0.000673938 -0.000673938 -0.000673938 -0.000673938 -0.000673938 -0.000673938 -0.000673938 -0.000673938 -0.000673938 -0.000673938 -0.000673938 -0.000673938 -0.000673938 -0.000673938 -0.000673938 -0.000673938 -0.000673938 -0.000673938 -0.000673938 

-0.000997944 0 0.000997944 0.00199589 0.00299383 0.00399178 0.00498972 0.00598767 0.00698561 0.00798355 0.0089815 0.00997944 0.0109774 0.0119753 0.0129733 0.0139712 0.0149692 0.0159671 0.0169651 0.017963 0.0189609 0.0199589 0.0209568 0.0219548 0.0229527 0.0239507 0.0249486 0.0259466 0.0269445 0.0279424 0.0289404 0.0299383 0.0309363 0.0319342 0.0329322 0.0339301 0.034928 0.035926 0.0369239 0.0379219 -0.000997944 0 0.000997944 0.00199589 0.00299383 0.00399178 0.00498972 0.00598767 0.00698561 0.00798355 0.0089815 0.00997944 0.0109774 0.0119753 0.0129733 0.0139712 0.0149692 0.0159671 0.0169651 0.017963 0.0189609 0.0199589 0.0209568 0.0219548 0.0229527 0.0239507 0.0249486 0.0259466 0.0269445 0.0279424 0.0289404 0.0299383 0.0309363 0.0319342 0.0329322 0.0339301 0.034928 0.035926 0.0369239 0.0379219 

0 0 0 0 0 0 0 0 0 0 0 0 0 0 0 0 0 0 0 0 0 0 0 0 0 0 0 0 0 0 0 0 0 0 0 0 0 0 0 0 0 0 0 0 0 0 0 0 0 0 0 0 0 0 0 0 0 0 0 0 0 57.3362 89.8701 97.0826 95.8116 105.072 127.969 155.504 176.207 180.32 164.083 133.075 97.5703 65.6108 40.2153 20.6697 4.50704 -11.2861 0 0 

ZONE T="Ephi", I=40, J=2, DATAPACKING=BLOCK
-0.000673938 -0.000673938 -0.000673938 -0.000673938 -0.000673938 -0.000673938 -0.000673938 -0.000673938 -0.000673938 -0.000673938 -0.000673938 -0.000673938 -0.000673938 -0.000673938 -0.000673938 -0.000673938 -0.000673938 -0.000673938 -0.000673938 -0.000673938 -0.000673938 -0.000673938 -0.000673938 -0.000673938 -0.000673938 -0.000673938 -0.000673938 -0.000673938 -0.000673938 -0.000673938 -0.000673938 -0.000673938 -0.000673938 -0.000673938 -0.000673938 -0.000673938 -0.000673938 -0.000673938 -0.000673938 -0.000673938 0.000326062 0.000326062 0.000326062 0.000326062 0.000326062 0.000326062 0.000326062 0.000326062 0.000326062 0.000326062 0.000326062 0.000326062 0.000326062 0.000326062 0.000326062 0.000326062 0.000326062 0.000326062 0.000326062 0.000326062 0.000326062 0.000326062 0.000326062 0.000326062 0.000326062 0.000326062 0.000326062 0.000326062 0.000326062 0.000326062 0.000326062 0.000326062 0.000326062 0.000326062 0.000326062 0.000326062 0.000326062 0.000326062 0.000326062 0.000326062 

-0.000997944 0 0.000997944 0.00199589 0.00299383 0.00399178 0.00498972 0.00598767 0.00698561 0.00798355 0.0089815 0.00997944 0.0109774 0.0119753 0.0129733 0.0139712 0.0149692 0.0159671 0.0169651 0.017963 0.0189609 0.0199589 0.0209568 0.0219548 0.0229527 0.0239507 0.0249486 0.0259466 0.0269445 0.0279424 0.0289404 0.0299383 0.0309363 0.0319342 0.0329322 0.0339301 0.034928 0.035926 0.0369239 0.0379219 -0.000997944 0 0.000997944 0.00199589 0.00299383 0.00399178 0.00498972 0.00598767 0.00698561 0.00798355 0.0089815 0.00997944 0.0109774 0.0119753 0.0129733 0.0139712 0.0149692 0.0159671 0.0169651 0.017963 0.0189609 0.0199589 0.0209568 0.0219548 0.0229527 0.0239507 0.0249486 0.0259466 0.0269445 0.0279424 0.0289404 0.0299383 0.0309363 0.0319342 0.0329322 0.0339301 0.034928 0.035926 0.0369239 0.0379219 

0 0 0 0 0 0 0 0 0 0 0 0 0 0 0 0 0 0 0 0 0 57.3362 89.8701 97.0826 95.8116 105.072 127.969 155.504 176.207 180.32 164.083 133.075 97.5703 65.6108 40.2153 20.6697 4.50704 -11.2861 0 0 0 0 0 0 0 0 0 0 0 0 0 0 0 0 0 0 0 0 0 0 0 46.6909 75.1144 100.015 124.509 150.105 173.808 189.921 191.77 176.586 149.309 118.59 90.6694 67.8746 49.5703 32.8228 14.1417 -8.0531 0 0 

ZONE T="Ephi", I=40, J=2, DATAPACKING=BLOCK
0.000326062 0.000326062 0.000326062 0.000326062 0.000326062 0.000326062 0.000326062 0.000326062 0.000326062 0.000326062 0.000326062 0.000326062 0.000326062 0.000326062 0.000326062 0.000326062 0.000326062 0.000326062 0.000326062 0.000326062 0.000326062 0.000326062 0.000326062 0.000326062 0.000326062 0.000326062 0.000326062 0.000326062 0.000326062 0.000326062 0.000326062 0.000326062 0.000326062 0.000326062 0.000326062 0.000326062 0.000326062 0.000326062 0.000326062 0.000326062 0.00132606 0.00132606 0.00132606 0.00132606 0.00132606 0.00132606 0.00132606 0.00132606 0.00132606 0.00132606 0.00132606 0.00132606 0.00132606 0.00132606 0.00132606 0.00132606 0.00132606 0.00132606 0.00132606 0.00132606 0.00132606 0.00132606 0.00132606 0.00132606 0.00132606 0.00132606 0.00132606 0.00132606 0.00132606 0.00132606 0.00132606 0.00132606 0.00132606 0.00132606 0.00132606 0.00132606 0.00132606 0.00132606 0.00132606 0.00132606 

-0.000997944 0 0.000997944 0.00199589 0.00299383 0.00399178 0.00498972 0.00598767 0.00698561 0.00798355 0.0089815 0.00997944 0.0109774 0.0119753 0.0129733 0.0139712 0.0149692 0.0159671 0.0169651 0.017963 0.0189609 0.0199589 0.0209568 0.0219548 0.0229527 0.0239507 0.0249486 0.0259466 0.0269445 0.0279424 0.0289404 0.0299383 0.0309363 0.0319342 0.0329322 0.0339301 0.034928 0.035926 0.0369239 0.0379219 -0.000997944 0 0.000997944 0.00199589 0.00299383 0.00399178 0.00498972 0.00598767 0.00698561 0.00798355 0.0089815 0.00997944 0.0109774 0.0119753 0.0129733 0.0139712 0.0149692 0.0159671 0.0169651 0.017963 0.0189609 0.0199589 0.0209568 0.0219548 0.0229527 0.0239507 0.0249486 0.0259466 0.0269445 0.0279424 0.0289404 0.0299383 0.0309363 0.0319342 0.0329322 0.0339301 0.034928 0.035926 0.0369239 0.0379219 

0 0 0 0 0 0 0 0 0 0 0 0 0 0 0 0 0 0 0 0 0 46.6909 75.1144 100.015 124.509 150.105 173.808 189.921 191.77 176.586 149.309 118.59 90.6694 67.8746 49.5703 32.8228 14.1417 -8.0531 0 0 0 0 0 0 0 0 0 0 0 0 0 0 0 0 0 0 0 0 0 0 0 18.653 33.6439 81.5203 135.99 167.661 172.434 161.134 144.15 132.286 133.967 145.507 155.064 152.469 133.063 95.6264 42.063 -20.2841 0 0 

ZONE T="Ephi", I=40, J=2, DATAPACKING=BLOCK
0.00132606 0.00132606 0.00132606 0.00132606 0.00132606 0.00132606 0.00132606 0.00132606 0.00132606 0.00132606 0.00132606 0.00132606 0.00132606 0.00132606 0.00132606 0.00132606 0.00132606 0.00132606 0.00132606 0.00132606 0.00132606 0.00132606 0.00132606 0.00132606 0.00132606 0.00132606 0.00132606 0.00132606 0.00132606 0.00132606 0.00132606 0.00132606 0.00132606 0.00132606 0.00132606 0.00132606 0.00132606 0.00132606 0.00132606 0.00132606 0.00232606 0.00232606 0.00232606 0.00232606 0.00232606 0.00232606 0.00232606 0.00232606 0.00232606 0.00232606 0.00232606 0.00232606 0.00232606 0.00232606 0.00232606 0.00232606 0.00232606 0.00232606 0.00232606 0.00232606 0.00232606 0.00232606 0.00232606 0.00232606 0.00232606 0.00232606 0.00232606 0.00232606 0.00232606 0.00232606 0.00232606 0.00232606 0.00232606 0.00232606 0.00232606 0.00232606 0.00232606 0.00232606 0.00232606 0.00232606 

-0.000997944 0 0.000997944 0.00199589 0.00299383 0.00399178 0.00498972 0.00598767 0.00698561 0.00798355 0.0089815 0.00997944 0.0109774 0.0119753 0.0129733 0.0139712 0.0149692 0.0159671 0.0169651 0.017963 0.0189609 0.0199589 0.0209568 0.0219548 0.0229527 0.0239507 0.0249486 0.0259466 0.0269445 0.0279424 0.0289404 0.0299383 0.0309363 0.0319342 0.0329322 0.0339301 0.034928 0.035926 0.0369239 0.0379219 -0.000997944 0 0.000997944 0.00199589 0.00299383 0.00399178 0.00498972 0.00598767 0.00698561 0.00798355 0.0089815 0.00997944 0.0109774 0.0119753 0.0129733 0.0139712 0.0149692 0.0159671 0.0169651 0.017963 0.0189609 0.0199589 0.0209568 0.0219548 0.0229527 0.0239507 0.0249486 0.0259466 0.0269445 0.0279424 0.0289404 0.0299383 0.0309363 0.0319342 0.0329322 0.0339301 0.034928 0.035926 0.0369239 0.0379219 

0 0 0 0 0 0 0 0 0 0 0 0 0 0 0 0 0 0 0 0 0 18.653 33.6439 81.5203 135.99 167.661 172.434 161.134 144.15 132.286 133.967 145.507 155.064 152.469 133.063 95.6264 42.063 -20.2841 0 0 0 0 0 0 0 0 0 0 0 0 0 0 0 0 0 0 0 0 0 0 0 26.0344 44.8535 90.4641 128.203 129.533 102.344 69.6303 54.8511 73.2798 118.204 163.948 188.382 183.363 150.924 97.6871 32.1099 -35.5067 0 0 

ZONE T="Ephi", I=40, J=2, DATAPACKING=BLOCK
0.00232606 0.00232606 0.00232606 0.00232606 0.00232606 0.00232606 0.00232606 0.00232606 0.00232606 0.00232606 0.00232606 0.00232606 0.00232606 0.00232606 0.00232606 0.00232606 0.00232606 0.00232606 0.00232606 0.00232606 0.00232606 0.00232606 0.00232606 0.00232606 0.00232606 0.00232606 0.00232606 0.00232606 0.00232606 0.00232606 0.00232606 0.00232606 0.00232606 0.00232606 0.00232606 0.00232606 0.00232606 0.00232606 0.00232606 0.00232606 0.00332606 0.00332606 0.00332606 0.00332606 0.00332606 0.00332606 0.00332606 0.00332606 0.00332606 0.00332606 0.00332606 0.00332606 0.00332606 0.00332606 0.00332606 0.00332606 0.00332606 0.00332606 0.00332606 0.00332606 0.00332606 0.00332606 0.00332606 0.00332606 0.00332606 0.00332606 0.00332606 0.00332606 0.00332606 0.00332606 0.00332606 0.00332606 0.00332606 0.00332606 0.00332606 0.00332606 0.00332606 0.00332606 0.00332606 0.00332606 

-0.000997944 0 0.000997944 0.00199589 0.00299383 0.00399178 0.00498972 0.00598767 0.00698561 0.00798355 0.0089815 0.00997944 0.0109774 0.0119753 0.0129733 0.0139712 0.0149692 0.0159671 0.0169651 0.017963 0.0189609 0.0199589 0.0209568 0.0219548 0.0229527 0.0239507 0.0249486 0.0259466 0.0269445 0.0279424 0.0289404 0.0299383 0.0309363 0.0319342 0.0329322 0.0339301 0.034928 0.035926 0.0369239 0.0379219 -0.000997944 0 0.000997944 0.00199589 0.00299383 0.00399178 0.00498972 0.00598767 0.00698561 0.00798355 0.0089815 0.00997944 0.0109774 0.0119753 0.0129733 0.0139712 0.0149692 0.0159671 0.0169651 0.017963 0.0189609 0.0199589 0.0209568 0.0219548 0.0229527 0.0239507 0.0249486 0.0259466 0.0269445 0.0279424 0.0289404 0.0299383 0.0309363 0.0319342 0.0329322 0.0339301 0.034928 0.035926 0.0369239 0.0379219 

0 0 0 0 0 0 0 0 0 0 0 0 0 0 0 0 0 0 0 0 0 26.0344 44.8535 90.4641 128.203 129.533 102.344 69.6303 54.8511 73.2798 118.204 163.948 188.382 183.363 150.924 97.6871 32.1099 -35.5067 0 0 0 0 0 0 0 0 0 0 0 0 0 0 0 0 0 0 0 0 0 0 0 78.5698 130.229 141.613 122.327 91.5967 61.8369 43.4108 53.3325 90.3972 125.391 134.451 115.322 79.0785 37.6556 2.15434 -19.2825 -29.1485 0 0 

ZONE T="Ephi", I=40, J=2, DATAPACKING=BLOCK
0.00332606 0.00332606 0.00332606 0.00332606 0.00332606 0.00332606 0.00332606 0.00332606 0.00332606 0.00332606 0.00332606 0.00332606 0.00332606 0.00332606 0.00332606 0.00332606 0.00332606 0.00332606 0.00332606 0.00332606 0.00332606 0.00332606 0.00332606 0.00332606 0.00332606 0.00332606 0.00332606 0.00332606 0.00332606 0.00332606 0.00332606 0.00332606 0.00332606 0.00332606 0.00332606 0.00332606 0.00332606 0.00332606 0.00332606 0.00332606 0.00432606 0.00432606 0.00432606 0.00432606 0.00432606 0.00432606 0.00432606 0.00432606 0.00432606 0.00432606 0.00432606 0.00432606 0.00432606 0.00432606 0.00432606 0.00432606 0.00432606 0.00432606 0.00432606 0.00432606 0.00432606 0.00432606 0.00432606 0.00432606 0.00432606 0.00432606 0.00432606 0.00432606 0.00432606 0.00432606 0.00432606 0.00432606 0.00432606 0.00432606 0.00432606 0.00432606 0.00432606 0.00432606 0.00432606 0.00432606 

-0.000997944 0 0.000997944 0.00199589 0.00299383 0.00399178 0.00498972 0.00598767 0.00698561 0.00798355 0.0089815 0.00997944 0.0109774 0.0119753 0.0129733 0.0139712 0.0149692 0.0159671 0.0169651 0.017963 0.0189609 0.0199589 0.0209568 0.0219548 0.0229527 0.0239507 0.0249486 0.0259466 0.0269445 0.0279424 0.0289404 0.0299383 0.0309363 0.0319342 0.0329322 0.0339301 0.034928 0.035926 0.0369239 0.0379219 -0.000997944 0 0.000997944 0.00199589 0.00299383 0.00399178 0.00498972 0.00598767 0.00698561 0.00798355 0.0089815 0.00997944 0.0109774 0.0119753 0.0129733 0.0139712 0.0149692 0.0159671 0.0169651 0.017963 0.0189609 0.0199589 0.0209568 0.0219548 0.0229527 0.0239507 0.0249486 0.0259466 0.0269445 0.0279424 0.0289404 0.0299383 0.0309363 0.0319342 0.0329322 0.0339301 0.034928 0.035926 0.0369239 0.0379219 

0 0 0 0 0 0 0 0 0 0 0 0 0 0 0 0 0 0 0 0 0 78.5698 130.229 141.613 122.327 91.5967 61.8369 43.4108 53.3325 90.3972 125.391 134.451 115.322 79.0785 37.6556 2.15434 -19.2825 -29.1485 0 0 0 0 0 0 0 0 0 0 0 0 0 0 0 0 0 0 0 0 0 0 0 100.231 172.866 151.146 102.309 85.7283 98.427 128.1 163.35 175.322 143.745 86.9253 29.7748 -14.5474 -41.9834 -49.0486 -33.2815 -10.7902 0 0 

ZONE T="Ephi", I=40, J=2, DATAPACKING=BLOCK
0.00432606 0.00432606 0.00432606 0.00432606 0.00432606 0.00432606 0.00432606 0.00432606 0.00432606 0.00432606 0.00432606 0.00432606 0.00432606 0.00432606 0.00432606 0.00432606 0.00432606 0.00432606 0.00432606 0.00432606 0.00432606 0.00432606 0.00432606 0.00432606 0.00432606 0.00432606 0.00432606 0.00432606 0.00432606 0.00432606 0.00432606 0.00432606 0.00432606 0.00432606 0.00432606 0.00432606 0.00432606 0.00432606 0.00432606 0.00432606 0.00532606 0.00532606 0.00532606 0.00532606 0.00532606 0.00532606 0.00532606 0.00532606 0.00532606 0.00532606 0.00532606 0.00532606 0.00532606 0.00532606 0.00532606 0.00532606 0.00532606 0.00532606 0.00532606 0.00532606 0.00532606 0.00532606 0.00532606 0.00532606 0.00532606 0.00532606 0.00532606 0.00532606 0.00532606 0.00532606 0.00532606 0.00532606 0.00532606 0.00532606 0.00532606 0.00532606 0.00532606 0.00532606 0.00532606 0.00532606 

-0.000997944 0 0.000997944 0.00199589 0.00299383 0.00399178 0.00498972 0.00598767 0.00698561 0.00798355 0.0089815 0.00997944 0.0109774 0.0119753 0.0129733 0.0139712 0.0149692 0.0159671 0.0169651 0.017963 0.0189609 0.0199589 0.0209568 0.0219548 0.0229527 0.0239507 0.0249486 0.0259466 0.0269445 0.0279424 0.0289404 0.0299383 0.0309363 0.0319342 0.0329322 0.0339301 0.034928 0.035926 0.0369239 0.0379219 -0.000997944 0 0.000997944 0.00199589 0.00299383 0.00399178 0.00498972 0.00598767 0.00698561 0.00798355 0.0089815 0.00997944 0.0109774 0.0119753 0.0129733 0.0139712 0.0149692 0.0159671 0.0169651 0.017963 0.0189609 0.0199589 0.0209568 0.0219548 0.0229527 0.0239507 0.0249486 0.0259466 0.0269445 0.0279424 0.0289404 0.0299383 0.0309363 0.0319342 0.0329322 0.0339301 0.034928 0.035926 0.0369239 0.0379219 

0 0 0 0 0 0 0 0 0 0 0 0 0 0 0 0 0 0 0 0 0 100.231 172.866 151.146 102.309 85.7283 98.427 128.1 163.35 175.322 143.745 86.9253 29.7748 -14.5474 -41.9834 -49.0486 -33.2815 -10.7902 0 0 0 0 0 0 0 0 0 0 0 0 0 0 0 0 0 0 0 0 0 0 0 45.9318 84.4187 67.9246 52.5286 76.5475 130.605 191.343 211.87 167.963 99.9723 57.6628 49.4304 53.6364 54.0136 44.9118 23.7016 -14.6189 0 0 

ZONE T="Ephi", I=40, J=2, DATAPACKING=BLOCK
0.00532606 0.00532606 0.00532606 0.00532606 0.00532606 0.00532606 0.00532606 0.00532606 0.00532606 0.00532606 0.00532606 0.00532606 0.00532606 0.00532606 0.00532606 0.00532606 0.00532606 0.00532606 0.00532606 0.00532606 0.00532606 0.00532606 0.00532606 0.00532606 0.00532606 0.00532606 0.00532606 0.00532606 0.00532606 0.00532606 0.00532606 0.00532606 0.00532606 0.00532606 0.00532606 0.00532606 0.00532606 0.00532606 0.00532606 0.00532606 0.00632606 0.00632606 0.00632606 0.00632606 0.00632606 0.00632606 0.00632606 0.00632606 0.00632606 0.00632606 0.00632606 0.00632606 0.00632606 0.00632606 0.00632606 0.00632606 0.00632606 0.00632606 0.00632606 0.00632606 0.00632606 0.00632606 0.00632606 0.00632606 0.00632606 0.00632606 0.00632606 0.00632606 0.00632606 0.00632606 0.00632606 0.00632606 0.00632606 0.00632606 0.00632606 0.00632606 0.00632606 0.00632606 0.00632606 0.00632606 

-0.000997944 0 0.000997944 0.00199589 0.00299383 0.00399178 0.00498972 0.00598767 0.00698561 0.00798355 0.0089815 0.00997944 0.0109774 0.0119753 0.0129733 0.0139712 0.0149692 0.0159671 0.0169651 0.017963 0.0189609 0.0199589 0.0209568 0.0219548 0.0229527 0.0239507 0.0249486 0.0259466 0.0269445 0.0279424 0.0289404 0.0299383 0.0309363 0.0319342 0.0329322 0.0339301 0.034928 0.035926 0.0369239 0.0379219 -0.000997944 0 0.000997944 0.00199589 0.00299383 0.00399178 0.00498972 0.00598767 0.00698561 0.00798355 0.0089815 0.00997944 0.0109774 0.0119753 0.0129733 0.0139712 0.0149692 0.0159671 0.0169651 0.017963 0.0189609 0.0199589 0.0209568 0.0219548 0.0229527 0.0239507 0.0249486 0.0259466 0.0269445 0.0279424 0.0289404 0.0299383 0.0309363 0.0319342 0.0329322 0.0339301 0.034928 0.035926 0.0369239 0.0379219 

0 0 0 0 0 0 0 0 0 0 0 0 0 0 0 0 0 0 0 0 0 45.9318 84.4187 67.9246 52.5286 76.5475 130.605 191.343 211.87 167.963 99.9723 57.6628 49.4304 53.6364 54.0136 44.9118 23.7016 -14.6189 0 0 0 0 0 0 0 0 0 0 0 0 0 0 0 0 0 0 0 0 0 0 0 -16.1043 -37.6478 -11.8224 34.1358 77.5915 122.384 137.47 88.1596 17.7355 7.45194 56.4904 122.885 164.364 168.141 134.45 56.0101 -39.2342 0 0 

ZONE T="Ephi", I=40, J=2, DATAPACKING=BLOCK
0.00632606 0.00632606 0.00632606 0.00632606 0.00632606 0.00632606 0.00632606 0.00632606 0.00632606 0.00632606 0.00632606 0.00632606 0.00632606 0.00632606 0.00632606 0.00632606 0.00632606 0.00632606 0.00632606 0.00632606 0.00632606 0.00632606 0.00632606 0.00632606 0.00632606 0.00632606 0.00632606 0.00632606 0.00632606 0.00632606 0.00632606 0.00632606 0.00632606 0.00632606 0.00632606 0.00632606 0.00632606 0.00632606 0.00632606 0.00632606 0.00732606 0.00732606 0.00732606 0.00732606 0.00732606 0.00732606 0.00732606 0.00732606 0.00732606 0.00732606 0.00732606 0.00732606 0.00732606 0.00732606 0.00732606 0.00732606 0.00732606 0.00732606 0.00732606 0.00732606 0.00732606 0.00732606 0.00732606 0.00732606 0.00732606 0.00732606 0.00732606 0.00732606 0.00732606 0.00732606 0.00732606 0.00732606 0.00732606 0.00732606 0.00732606 0.00732606 0.00732606 0.00732606 0.00732606 0.00732606 

-0.000997944 0 0.000997944 0.00199589 0.00299383 0.00399178 0.00498972 0.00598767 0.00698561 0.00798355 0.0089815 0.00997944 0.0109774 0.0119753 0.0129733 0.0139712 0.0149692 0.0159671 0.0169651 0.017963 0.0189609 0.0199589 0.0209568 0.0219548 0.0229527 0.0239507 0.0249486 0.0259466 0.0269445 0.0279424 0.0289404 0.0299383 0.0309363 0.0319342 0.0329322 0.0339301 0.034928 0.035926 0.0369239 0.0379219 -0.000997944 0 0.000997944 0.00199589 0.00299383 0.00399178 0.00498972 0.00598767 0.00698561 0.00798355 0.0089815 0.00997944 0.0109774 0.0119753 0.0129733 0.0139712 0.0149692 0.0159671 0.0169651 0.017963 0.0189609 0.0199589 0.0209568 0.0219548 0.0229527 0.0239507 0.0249486 0.0259466 0.0269445 0.0279424 0.0289404 0.0299383 0.0309363 0.0319342 0.0329322 0.0339301 0.034928 0.035926 0.0369239 0.0379219 

0 0 0 0 0 0 0 0 0 0 0 0 0 0 0 0 0 0 0 0 0 -16.1043 -37.6478 -11.8224 34.1358 77.5915 122.384 137.47 88.1596 17.7355 7.45194 56.4904 122.885 164.364 168.141 134.45 56.0101 -39.2342 0 0 0 0 0 0 0 0 0 0 0 0 0 0 0 0 0 0 0 0 0 0 0 -21.3946 -65.1541 4.01728 94.4826 131.193 113.53 31.4511 -52.9558 -53.6882 21.2656 90.0659 114.935 105.993 79.2499 41.8752 -11.0946 -42.1839 0 0 

ZONE T="Ephi", I=40, J=2, DATAPACKING=BLOCK
0.00732606 0.00732606 0.00732606 0.00732606 0.00732606 0.00732606 0.00732606 0.00732606 0.00732606 0.00732606 0.00732606 0.00732606 0.00732606 0.00732606 0.00732606 0.00732606 0.00732606 0.00732606 0.00732606 0.00732606 0.00732606 0.00732606 0.00732606 0.00732606 0.00732606 0.00732606 0.00732606 0.00732606 0.00732606 0.00732606 0.00732606 0.00732606 0.00732606 0.00732606 0.00732606 0.00732606 0.00732606 0.00732606 0.00732606 0.00732606 0.00832606 0.00832606 0.00832606 0.00832606 0.00832606 0.00832606 0.00832606 0.00832606 0.00832606 0.00832606 0.00832606 0.00832606 0.00832606 0.00832606 0.00832606 0.00832606 0.00832606 0.00832606 0.00832606 0.00832606 0.00832606 0.00832606 0.00832606 0.00832606 0.00832606 0.00832606 0.00832606 0.00832606 0.00832606 0.00832606 0.00832606 0.00832606 0.00832606 0.00832606 0.00832606 0.00832606 0.00832606 0.00832606 0.00832606 0.00832606 

-0.000997944 0 0.000997944 0.00199589 0.00299383 0.00399178 0.00498972 0.00598767 0.00698561 0.00798355 0.0089815 0.00997944 0.0109774 0.0119753 0.0129733 0.0139712 0.0149692 0.0159671 0.0169651 0.017963 0.0189609 0.0199589 0.0209568 0.0219548 0.0229527 0.0239507 0.0249486 0.0259466 0.0269445 0.0279424 0.0289404 0.0299383 0.0309363 0.0319342 0.0329322 0.0339301 0.034928 0.035926 0.0369239 0.0379219 -0.000997944 0 0.000997944 0.00199589 0.00299383 0.00399178 0.00498972 0.00598767 0.00698561 0.00798355 0.0089815 0.00997944 0.0109774 0.0119753 0.0129733 0.0139712 0.0149692 0.0159671 0.0169651 0.017963 0.0189609 0.0199589 0.0209568 0.0219548 0.0229527 0.0239507 0.0249486 0.0259466 0.0269445 0.0279424 0.0289404 0.0299383 0.0309363 0.0319342 0.0329322 0.0339301 0.034928 0.035926 0.0369239 0.0379219 

0 0 0 0 0 0 0 0 0 0 0 0 0 0 0 0 0 0 0 0 0 -21.3946 -65.1541 4.01728 94.4826 131.193 113.53 31.4511 -52.9558 -53.6882 21.2656 90.0659 114.935 105.993 79.2499 41.8752 -11.0946 -42.1839 0 0 0 0 0 0 0 0 0 0 0 0 0 0 0 0 0 0 0 0 0 0 0 -2.99265 -23.9932 52.1849 136.562 141.514 58.6346 -28.5555 -5.26885 104.216 151.75 104.406 7.52591 -64.4869 -99.9935 -110.726 -75.4278 -10.4154 0 0 

ZONE T="Ephi", I=40, J=2, DATAPACKING=BLOCK
0.00832606 0.00832606 0.00832606 0.00832606 0.00832606 0.00832606 0.00832606 0.00832606 0.00832606 0.00832606 0.00832606 0.00832606 0.00832606 0.00832606 0.00832606 0.00832606 0.00832606 0.00832606 0.00832606 0.00832606 0.00832606 0.00832606 0.00832606 0.00832606 0.00832606 0.00832606 0.00832606 0.00832606 0.00832606 0.00832606 0.00832606 0.00832606 0.00832606 0.00832606 0.00832606 0.00832606 0.00832606 0.00832606 0.00832606 0.00832606 0.00932606 0.00932606 0.00932606 0.00932606 0.00932606 0.00932606 0.00932606 0.00932606 0.00932606 0.00932606 0.00932606 0.00932606 0.00932606 0.00932606 0.00932606 0.00932606 0.00932606 0.00932606 0.00932606 0.00932606 0.00932606 0.00932606 0.00932606 0.00932606 0.00932606 0.00932606 0.00932606 0.00932606 0.00932606 0.00932606 0.00932606 0.00932606 0.00932606 0.00932606 0.00932606 0.00932606 0.00932606 0.00932606 0.00932606 0.00932606 

-0.000997944 0 0.000997944 0.00199589 0.00299383 0.00399178 0.00498972 0.00598767 0.00698561 0.00798355 0.0089815 0.00997944 0.0109774 0.0119753 0.0129733 0.0139712 0.0149692 0.0159671 0.0169651 0.017963 0.0189609 0.0199589 0.0209568 0.0219548 0.0229527 0.0239507 0.0249486 0.0259466 0.0269445 0.0279424 0.0289404 0.0299383 0.0309363 0.0319342 0.0329322 0.0339301 0.034928 0.035926 0.0369239 0.0379219 -0.000997944 0 0.000997944 0.00199589 0.00299383 0.00399178 0.00498972 0.00598767 0.00698561 0.00798355 0.0089815 0.00997944 0.0109774 0.0119753 0.0129733 0.0139712 0.0149692 0.0159671 0.0169651 0.017963 0.0189609 0.0199589 0.0209568 0.0219548 0.0229527 0.0239507 0.0249486 0.0259466 0.0269445 0.0279424 0.0289404 0.0299383 0.0309363 0.0319342 0.0329322 0.0339301 0.034928 0.035926 0.0369239 0.0379219 

0 0 0 0 0 0 0 0 0 0 0 0 0 0 0 0 0 0 0 0 0 -2.99265 -23.9932 52.1849 136.562 141.514 58.6346 -28.5555 -5.26885 104.216 151.75 104.406 7.52591 -64.4869 -99.9935 -110.726 -75.4278 -10.4154 0 0 0 0 0 0 0 0 0 0 0 0 0 0 0 0 0 0 0 0 0 0 0 11.8462 20.8233 44.0118 39.4328 -6.30837 -61.1677 6.16516 159.974 234.433 144.91 11.8989 -80.8884 -109.789 -105.919 -93.2757 -28.6953 1.79481 0 0 

ZONE T="Ephi", I=40, J=2, DATAPACKING=BLOCK
0.00932606 0.00932606 0.00932606 0.00932606 0.00932606 0.00932606 0.00932606 0.00932606 0.00932606 0.00932606 0.00932606 0.00932606 0.00932606 0.00932606 0.00932606 0.00932606 0.00932606 0.00932606 0.00932606 0.00932606 0.00932606 0.00932606 0.00932606 0.00932606 0.00932606 0.00932606 0.00932606 0.00932606 0.00932606 0.00932606 0.00932606 0.00932606 0.00932606 0.00932606 0.00932606 0.00932606 0.00932606 0.00932606 0.00932606 0.00932606 0.0103261 0.0103261 0.0103261 0.0103261 0.0103261 0.0103261 0.0103261 0.0103261 0.0103261 0.0103261 0.0103261 0.0103261 0.0103261 0.0103261 0.0103261 0.0103261 0.0103261 0.0103261 0.0103261 0.0103261 0.0103261 0.0103261 0.0103261 0.0103261 0.0103261 0.0103261 0.0103261 0.0103261 0.0103261 0.0103261 0.0103261 0.0103261 0.0103261 0.0103261 0.0103261 0.0103261 0.0103261 0.0103261 0.0103261 0.0103261 

-0.000997944 0 0.000997944 0.00199589 0.00299383 0.00399178 0.00498972 0.00598767 0.00698561 0.00798355 0.0089815 0.00997944 0.0109774 0.0119753 0.0129733 0.0139712 0.0149692 0.0159671 0.0169651 0.017963 0.0189609 0.0199589 0.0209568 0.0219548 0.0229527 0.0239507 0.0249486 0.0259466 0.0269445 0.0279424 0.0289404 0.0299383 0.0309363 0.0319342 0.0329322 0.0339301 0.034928 0.035926 0.0369239 0.0379219 -0.000997944 0 0.000997944 0.00199589 0.00299383 0.00399178 0.00498972 0.00598767 0.00698561 0.00798355 0.0089815 0.00997944 0.0109774 0.0119753 0.0129733 0.0139712 0.0149692 0.0159671 0.0169651 0.017963 0.0189609 0.0199589 0.0209568 0.0219548 0.0229527 0.0239507 0.0249486 0.0259466 0.0269445 0.0279424 0.0289404 0.0299383 0.0309363 0.0319342 0.0329322 0.0339301 0.034928 0.035926 0.0369239 0.0379219 

0 0 0 0 0 0 0 0 0 0 0 0 0 0 0 0 0 0 0 0 0 11.8462 20.8233 44.0118 39.4328 -6.30837 -61.1677 6.16516 159.974 234.433 144.91 11.8989 -80.8884 -109.789 -105.919 -93.2757 -28.6953 1.79481 0 0 0 0 -2245.11 -936.395 -683.88 -534.938 -253.558 31.2137 211.802 159.234 14.1181 -32.0827 33.5199 53.5993 48.448 41.921 28.33 13.5836 15.0719 12.7961 0 54.5772 83.1336 4.71782 -116.89 -156.496 -67.8935 113.034 183.634 73.3659 -59.7899 -106.005 -65.8145 -32.213 -11.3684 13.6108 20.079 -38.8381 0 0 

ZONE T="Ephi", I=40, J=2, DATAPACKING=BLOCK
0.0103261 0.0103261 0.0103261 0.0103261 0.0103261 0.0103261 0.0103261 0.0103261 0.0103261 0.0103261 0.0103261 0.0103261 0.0103261 0.0103261 0.0103261 0.0103261 0.0103261 0.0103261 0.0103261 0.0103261 0.0103261 0.0103261 0.0103261 0.0103261 0.0103261 0.0103261 0.0103261 0.0103261 0.0103261 0.0103261 0.0103261 0.0103261 0.0103261 0.0103261 0.0103261 0.0103261 0.0103261 0.0103261 0.0103261 0.0103261 0.0113261 0.0113261 0.0113261 0.0113261 0.0113261 0.0113261 0.0113261 0.0113261 0.0113261 0.0113261 0.0113261 0.0113261 0.0113261 0.0113261 0.0113261 0.0113261 0.0113261 0.0113261 0.0113261 0.0113261 0.0113261 0.0113261 0.0113261 0.0113261 0.0113261 0.0113261 0.0113261 0.0113261 0.0113261 0.0113261 0.0113261 0.0113261 0.0113261 0.0113261 0.0113261 0.0113261 0.0113261 0.0113261 0.0113261 0.0113261 

-0.000997944 0 0.000997944 0.00199589 0.00299383 0.00399178 0.00498972 0.00598767 0.00698561 0.00798355 0.0089815 0.00997944 0.0109774 0.0119753 0.0129733 0.0139712 0.0149692 0.0159671 0.0169651 0.017963 0.0189609 0.0199589 0.0209568 0.0219548 0.0229527 0.0239507 0.0249486 0.0259466 0.0269445 0.0279424 0.0289404 0.0299383 0.0309363 0.0319342 0.0329322 0.0339301 0.034928 0.035926 0.0369239 0.0379219 -0.000997944 0 0.000997944 0.00199589 0.00299383 0.00399178 0.00498972 0.00598767 0.00698561 0.00798355 0.0089815 0.00997944 0.0109774 0.0119753 0.0129733 0.0139712 0.0149692 0.0159671 0.0169651 0.017963 0.0189609 0.0199589 0.0209568 0.0219548 0.0229527 0.0239507 0.0249486 0.0259466 0.0269445 0.0279424 0.0289404 0.0299383 0.0309363 0.0319342 0.0329322 0.0339301 0.034928 0.035926 0.0369239 0.0379219 

0 0 -2245.11 -936.395 -683.88 -534.938 -253.558 31.2137 211.802 159.234 14.1181 -32.0827 33.5199 53.5993 48.448 41.921 28.33 13.5836 15.0719 12.7961 0 54.5772 83.1336 4.71782 -116.89 -156.496 -67.8935 113.034 183.634 73.3659 -59.7899 -106.005 -65.8145 -32.213 -11.3684 13.6108 20.079 -38.8381 0 0 0 0 -5582.5 -4274.29 -2935.37 -1231.63 211.585 904.403 634.541 -19.4701 -80.7599 337.715 585.87 439.053 299.608 182.845 98.7152 126.656 207.758 120.258 0 89.1244 121.221 -28.6056 -151.916 -92.8111 93.6405 156.198 22.7907 -147.31 -146.1 -79.0621 -26.1579 -42.5432 -42.7766 2.5943 -41.8344 -60.5357 0 0 

ZONE T="Ephi", I=40, J=2, DATAPACKING=BLOCK
0.0113261 0.0113261 0.0113261 0.0113261 0.0113261 0.0113261 0.0113261 0.0113261 0.0113261 0.0113261 0.0113261 0.0113261 0.0113261 0.0113261 0.0113261 0.0113261 0.0113261 0.0113261 0.0113261 0.0113261 0.0113261 0.0113261 0.0113261 0.0113261 0.0113261 0.0113261 0.0113261 0.0113261 0.0113261 0.0113261 0.0113261 0.0113261 0.0113261 0.0113261 0.0113261 0.0113261 0.0113261 0.0113261 0.0113261 0.0113261 0.0123261 0.0123261 0.0123261 0.0123261 0.0123261 0.0123261 0.0123261 0.0123261 0.0123261 0.0123261 0.0123261 0.0123261 0.0123261 0.0123261 0.0123261 0.0123261 0.0123261 0.0123261 0.0123261 0.0123261 0.0123261 0.0123261 0.0123261 0.0123261 0.0123261 0.0123261 0.0123261 0.0123261 0.0123261 0.0123261 0.0123261 0.0123261 0.0123261 0.0123261 0.0123261 0.0123261 0.0123261 0.0123261 0.0123261 0.0123261 

-0.000997944 0 0.000997944 0.00199589 0.00299383 0.00399178 0.00498972 0.00598767 0.00698561 0.00798355 0.0089815 0.00997944 0.0109774 0.0119753 0.0129733 0.0139712 0.0149692 0.0159671 0.0169651 0.017963 0.0189609 0.0199589 0.0209568 0.0219548 0.0229527 0.0239507 0.0249486 0.0259466 0.0269445 0.0279424 0.0289404 0.0299383 0.0309363 0.0319342 0.0329322 0.0339301 0.034928 0.035926 0.0369239 0.0379219 -0.000997944 0 0.000997944 0.00199589 0.00299383 0.00399178 0.00498972 0.00598767 0.00698561 0.00798355 0.0089815 0.00997944 0.0109774 0.0119753 0.0129733 0.0139712 0.0149692 0.0159671 0.0169651 0.017963 0.0189609 0.0199589 0.0209568 0.0219548 0.0229527 0.0239507 0.0249486 0.0259466 0.0269445 0.0279424 0.0289404 0.0299383 0.0309363 0.0319342 0.0329322 0.0339301 0.034928 0.035926 0.0369239 0.0379219 
