TITLE="EPhi"
VARIABLES="z", "r", "EPhi"
ZONE T="Ephi", I=40, J=2, DATAPACKING=BLOCK
-0.00167394 -0.00167394 -0.00167394 -0.00167394 -0.00167394 -0.00167394 -0.00167394 -0.00167394 -0.00167394 -0.00167394 -0.00167394 -0.00167394 -0.00167394 -0.00167394 -0.00167394 -0.00167394 -0.00167394 -0.00167394 -0.00167394 -0.00167394 -0.00167394 -0.00167394 -0.00167394 -0.00167394 -0.00167394 -0.00167394 -0.00167394 -0.00167394 -0.00167394 -0.00167394 -0.00167394 -0.00167394 -0.00167394 -0.00167394 -0.00167394 -0.00167394 -0.00167394 -0.00167394 -0.00167394 -0.00167394 -0.000673938 -0.000673938 -0.000673938 -0.000673938 -0.000673938 -0.000673938 -0.000673938 -0.000673938 -0.000673938 -0.000673938 -0.000673938 -0.000673938 -0.000673938 -0.000673938 -0.000673938 -0.000673938 -0.000673938 -0.000673938 -0.000673938 -0.000673938 -0.000673938 -0.000673938 -0.000673938 -0.000673938 -0.000673938 -0.000673938 -0.000673938 -0.000673938 -0.000673938 -0.000673938 -0.000673938 -0.000673938 -0.000673938 -0.000673938 -0.000673938 -0.000673938 -0.000673938 -0.000673938 -0.000673938 -0.000673938 

-0.000997944 0 0.000997944 0.00199589 0.00299383 0.00399178 0.00498972 0.00598767 0.00698561 0.00798355 0.0089815 0.00997944 0.0109774 0.0119753 0.0129733 0.0139712 0.0149692 0.0159671 0.0169651 0.017963 0.0189609 0.0199589 0.0209568 0.0219548 0.0229527 0.0239507 0.0249486 0.0259466 0.0269445 0.0279424 0.0289404 0.0299383 0.0309363 0.0319342 0.0329322 0.0339301 0.034928 0.035926 0.0369239 0.0379219 -0.000997944 0 0.000997944 0.00199589 0.00299383 0.00399178 0.00498972 0.00598767 0.00698561 0.00798355 0.0089815 0.00997944 0.0109774 0.0119753 0.0129733 0.0139712 0.0149692 0.0159671 0.0169651 0.017963 0.0189609 0.0199589 0.0209568 0.0219548 0.0229527 0.0239507 0.0249486 0.0259466 0.0269445 0.0279424 0.0289404 0.0299383 0.0309363 0.0319342 0.0329322 0.0339301 0.034928 0.035926 0.0369239 0.0379219 

0 0 0 0 0 0 0 0 0 0 0 0 0 0 0 0 0 0 0 0 0 0 0 0 0 0 0 0 0 0 0 0 0 0 0 0 0 0 0 0 0 0 0 0 0 0 0 0 0 0 0 0 0 0 0 0 0 0 0 0 0 -6.43308 -15.4238 -0.934217 11.7618 6.08041 -8.88429 -19.5419 -24.6199 -28.4675 -31.8999 -33.5427 -32.8636 -29.1628 -22.2137 -14.6216 -9.80838 -7.39905 0 0 

ZONE T="Ephi", I=40, J=2, DATAPACKING=BLOCK
-0.000673938 -0.000673938 -0.000673938 -0.000673938 -0.000673938 -0.000673938 -0.000673938 -0.000673938 -0.000673938 -0.000673938 -0.000673938 -0.000673938 -0.000673938 -0.000673938 -0.000673938 -0.000673938 -0.000673938 -0.000673938 -0.000673938 -0.000673938 -0.000673938 -0.000673938 -0.000673938 -0.000673938 -0.000673938 -0.000673938 -0.000673938 -0.000673938 -0.000673938 -0.000673938 -0.000673938 -0.000673938 -0.000673938 -0.000673938 -0.000673938 -0.000673938 -0.000673938 -0.000673938 -0.000673938 -0.000673938 0.000326062 0.000326062 0.000326062 0.000326062 0.000326062 0.000326062 0.000326062 0.000326062 0.000326062 0.000326062 0.000326062 0.000326062 0.000326062 0.000326062 0.000326062 0.000326062 0.000326062 0.000326062 0.000326062 0.000326062 0.000326062 0.000326062 0.000326062 0.000326062 0.000326062 0.000326062 0.000326062 0.000326062 0.000326062 0.000326062 0.000326062 0.000326062 0.000326062 0.000326062 0.000326062 0.000326062 0.000326062 0.000326062 0.000326062 0.000326062 

-0.000997944 0 0.000997944 0.00199589 0.00299383 0.00399178 0.00498972 0.00598767 0.00698561 0.00798355 0.0089815 0.00997944 0.0109774 0.0119753 0.0129733 0.0139712 0.0149692 0.0159671 0.0169651 0.017963 0.0189609 0.0199589 0.0209568 0.0219548 0.0229527 0.0239507 0.0249486 0.0259466 0.0269445 0.0279424 0.0289404 0.0299383 0.0309363 0.0319342 0.0329322 0.0339301 0.034928 0.035926 0.0369239 0.0379219 -0.000997944 0 0.000997944 0.00199589 0.00299383 0.00399178 0.00498972 0.00598767 0.00698561 0.00798355 0.0089815 0.00997944 0.0109774 0.0119753 0.0129733 0.0139712 0.0149692 0.0159671 0.0169651 0.017963 0.0189609 0.0199589 0.0209568 0.0219548 0.0229527 0.0239507 0.0249486 0.0259466 0.0269445 0.0279424 0.0289404 0.0299383 0.0309363 0.0319342 0.0329322 0.0339301 0.034928 0.035926 0.0369239 0.0379219 

0 0 0 0 0 0 0 0 0 0 0 0 0 0 0 0 0 0 0 0 0 -6.43308 -15.4238 -0.934217 11.7618 6.08041 -8.88429 -19.5419 -24.6199 -28.4675 -31.8999 -33.5427 -32.8636 -29.1628 -22.2137 -14.6216 -9.80838 -7.39905 0 0 0 0 0 0 0 0 0 0 0 0 0 0 0 0 0 0 0 0 0 0 0 -2.60266 -28.5502 -13.7529 16.5408 29.1393 15.6031 -10.2285 -29.4942 -32.1352 -22.3924 -11.7196 -7.32637 -8.17779 -10.9147 -13.7422 -14.812 -13.3764 0 0 

ZONE T="Ephi", I=40, J=2, DATAPACKING=BLOCK
0.000326062 0.000326062 0.000326062 0.000326062 0.000326062 0.000326062 0.000326062 0.000326062 0.000326062 0.000326062 0.000326062 0.000326062 0.000326062 0.000326062 0.000326062 0.000326062 0.000326062 0.000326062 0.000326062 0.000326062 0.000326062 0.000326062 0.000326062 0.000326062 0.000326062 0.000326062 0.000326062 0.000326062 0.000326062 0.000326062 0.000326062 0.000326062 0.000326062 0.000326062 0.000326062 0.000326062 0.000326062 0.000326062 0.000326062 0.000326062 0.00132606 0.00132606 0.00132606 0.00132606 0.00132606 0.00132606 0.00132606 0.00132606 0.00132606 0.00132606 0.00132606 0.00132606 0.00132606 0.00132606 0.00132606 0.00132606 0.00132606 0.00132606 0.00132606 0.00132606 0.00132606 0.00132606 0.00132606 0.00132606 0.00132606 0.00132606 0.00132606 0.00132606 0.00132606 0.00132606 0.00132606 0.00132606 0.00132606 0.00132606 0.00132606 0.00132606 0.00132606 0.00132606 0.00132606 0.00132606 

-0.000997944 0 0.000997944 0.00199589 0.00299383 0.00399178 0.00498972 0.00598767 0.00698561 0.00798355 0.0089815 0.00997944 0.0109774 0.0119753 0.0129733 0.0139712 0.0149692 0.0159671 0.0169651 0.017963 0.0189609 0.0199589 0.0209568 0.0219548 0.0229527 0.0239507 0.0249486 0.0259466 0.0269445 0.0279424 0.0289404 0.0299383 0.0309363 0.0319342 0.0329322 0.0339301 0.034928 0.035926 0.0369239 0.0379219 -0.000997944 0 0.000997944 0.00199589 0.00299383 0.00399178 0.00498972 0.00598767 0.00698561 0.00798355 0.0089815 0.00997944 0.0109774 0.0119753 0.0129733 0.0139712 0.0149692 0.0159671 0.0169651 0.017963 0.0189609 0.0199589 0.0209568 0.0219548 0.0229527 0.0239507 0.0249486 0.0259466 0.0269445 0.0279424 0.0289404 0.0299383 0.0309363 0.0319342 0.0329322 0.0339301 0.034928 0.035926 0.0369239 0.0379219 

0 0 0 0 0 0 0 0 0 0 0 0 0 0 0 0 0 0 0 0 0 -2.60266 -28.5502 -13.7529 16.5408 29.1393 15.6031 -10.2285 -29.4942 -32.1352 -22.3924 -11.7196 -7.32637 -8.17779 -10.9147 -13.7422 -14.812 -13.3764 0 0 0 0 0 0 0 0 0 0 0 0 0 0 0 0 0 0 0 0 0 0 0 41.0168 32.4436 13.6563 10.0649 21.1228 21.2739 2.38803 -15.6271 -16.9121 -9.02818 -7.07352 -15.2615 -28.7623 -41.0342 -44.4 -33.1258 -12.0106 0 0 

ZONE T="Ephi", I=40, J=2, DATAPACKING=BLOCK
0.00132606 0.00132606 0.00132606 0.00132606 0.00132606 0.00132606 0.00132606 0.00132606 0.00132606 0.00132606 0.00132606 0.00132606 0.00132606 0.00132606 0.00132606 0.00132606 0.00132606 0.00132606 0.00132606 0.00132606 0.00132606 0.00132606 0.00132606 0.00132606 0.00132606 0.00132606 0.00132606 0.00132606 0.00132606 0.00132606 0.00132606 0.00132606 0.00132606 0.00132606 0.00132606 0.00132606 0.00132606 0.00132606 0.00132606 0.00132606 0.00232606 0.00232606 0.00232606 0.00232606 0.00232606 0.00232606 0.00232606 0.00232606 0.00232606 0.00232606 0.00232606 0.00232606 0.00232606 0.00232606 0.00232606 0.00232606 0.00232606 0.00232606 0.00232606 0.00232606 0.00232606 0.00232606 0.00232606 0.00232606 0.00232606 0.00232606 0.00232606 0.00232606 0.00232606 0.00232606 0.00232606 0.00232606 0.00232606 0.00232606 0.00232606 0.00232606 0.00232606 0.00232606 0.00232606 0.00232606 

-0.000997944 0 0.000997944 0.00199589 0.00299383 0.00399178 0.00498972 0.00598767 0.00698561 0.00798355 0.0089815 0.00997944 0.0109774 0.0119753 0.0129733 0.0139712 0.0149692 0.0159671 0.0169651 0.017963 0.0189609 0.0199589 0.0209568 0.0219548 0.0229527 0.0239507 0.0249486 0.0259466 0.0269445 0.0279424 0.0289404 0.0299383 0.0309363 0.0319342 0.0329322 0.0339301 0.034928 0.035926 0.0369239 0.0379219 -0.000997944 0 0.000997944 0.00199589 0.00299383 0.00399178 0.00498972 0.00598767 0.00698561 0.00798355 0.0089815 0.00997944 0.0109774 0.0119753 0.0129733 0.0139712 0.0149692 0.0159671 0.0169651 0.017963 0.0189609 0.0199589 0.0209568 0.0219548 0.0229527 0.0239507 0.0249486 0.0259466 0.0269445 0.0279424 0.0289404 0.0299383 0.0309363 0.0319342 0.0329322 0.0339301 0.034928 0.035926 0.0369239 0.0379219 

0 0 0 0 0 0 0 0 0 0 0 0 0 0 0 0 0 0 0 0 0 41.0168 32.4436 13.6563 10.0649 21.1228 21.2739 2.38803 -15.6271 -16.9121 -9.02818 -7.07352 -15.2615 -28.7623 -41.0342 -44.4 -33.1258 -12.0106 0 0 0 0 0 0 0 0 0 0 0 0 0 0 0 0 0 0 0 0 0 0 0 72.6175 95.811 52.2623 14.8562 24.1967 50.915 61.5409 53.4916 33.8315 7.67027 -19.5872 -42.8432 -62.5262 -74.7215 -68.3029 -40.7946 -3.14194 0 0 

ZONE T="Ephi", I=40, J=2, DATAPACKING=BLOCK
0.00232606 0.00232606 0.00232606 0.00232606 0.00232606 0.00232606 0.00232606 0.00232606 0.00232606 0.00232606 0.00232606 0.00232606 0.00232606 0.00232606 0.00232606 0.00232606 0.00232606 0.00232606 0.00232606 0.00232606 0.00232606 0.00232606 0.00232606 0.00232606 0.00232606 0.00232606 0.00232606 0.00232606 0.00232606 0.00232606 0.00232606 0.00232606 0.00232606 0.00232606 0.00232606 0.00232606 0.00232606 0.00232606 0.00232606 0.00232606 0.00332606 0.00332606 0.00332606 0.00332606 0.00332606 0.00332606 0.00332606 0.00332606 0.00332606 0.00332606 0.00332606 0.00332606 0.00332606 0.00332606 0.00332606 0.00332606 0.00332606 0.00332606 0.00332606 0.00332606 0.00332606 0.00332606 0.00332606 0.00332606 0.00332606 0.00332606 0.00332606 0.00332606 0.00332606 0.00332606 0.00332606 0.00332606 0.00332606 0.00332606 0.00332606 0.00332606 0.00332606 0.00332606 0.00332606 0.00332606 

-0.000997944 0 0.000997944 0.00199589 0.00299383 0.00399178 0.00498972 0.00598767 0.00698561 0.00798355 0.0089815 0.00997944 0.0109774 0.0119753 0.0129733 0.0139712 0.0149692 0.0159671 0.0169651 0.017963 0.0189609 0.0199589 0.0209568 0.0219548 0.0229527 0.0239507 0.0249486 0.0259466 0.0269445 0.0279424 0.0289404 0.0299383 0.0309363 0.0319342 0.0329322 0.0339301 0.034928 0.035926 0.0369239 0.0379219 -0.000997944 0 0.000997944 0.00199589 0.00299383 0.00399178 0.00498972 0.00598767 0.00698561 0.00798355 0.0089815 0.00997944 0.0109774 0.0119753 0.0129733 0.0139712 0.0149692 0.0159671 0.0169651 0.017963 0.0189609 0.0199589 0.0209568 0.0219548 0.0229527 0.0239507 0.0249486 0.0259466 0.0269445 0.0279424 0.0289404 0.0299383 0.0309363 0.0319342 0.0329322 0.0339301 0.034928 0.035926 0.0369239 0.0379219 

0 0 0 0 0 0 0 0 0 0 0 0 0 0 0 0 0 0 0 0 0 72.6175 95.811 52.2623 14.8562 24.1967 50.915 61.5409 53.4916 33.8315 7.67027 -19.5872 -42.8432 -62.5262 -74.7215 -68.3029 -40.7946 -3.14194 0 0 0 0 0 0 0 0 0 0 0 0 0 0 0 0 0 0 0 0 0 0 0 37.5431 61.5226 54.0124 37.4629 38.9235 66.4214 96.892 96.067 56.3509 7.74641 -21.5813 -32.7424 -40.4675 -44.8757 -38.2216 -25.2009 -9.62397 0 0 

ZONE T="Ephi", I=40, J=2, DATAPACKING=BLOCK
0.00332606 0.00332606 0.00332606 0.00332606 0.00332606 0.00332606 0.00332606 0.00332606 0.00332606 0.00332606 0.00332606 0.00332606 0.00332606 0.00332606 0.00332606 0.00332606 0.00332606 0.00332606 0.00332606 0.00332606 0.00332606 0.00332606 0.00332606 0.00332606 0.00332606 0.00332606 0.00332606 0.00332606 0.00332606 0.00332606 0.00332606 0.00332606 0.00332606 0.00332606 0.00332606 0.00332606 0.00332606 0.00332606 0.00332606 0.00332606 0.00432606 0.00432606 0.00432606 0.00432606 0.00432606 0.00432606 0.00432606 0.00432606 0.00432606 0.00432606 0.00432606 0.00432606 0.00432606 0.00432606 0.00432606 0.00432606 0.00432606 0.00432606 0.00432606 0.00432606 0.00432606 0.00432606 0.00432606 0.00432606 0.00432606 0.00432606 0.00432606 0.00432606 0.00432606 0.00432606 0.00432606 0.00432606 0.00432606 0.00432606 0.00432606 0.00432606 0.00432606 0.00432606 0.00432606 0.00432606 

-0.000997944 0 0.000997944 0.00199589 0.00299383 0.00399178 0.00498972 0.00598767 0.00698561 0.00798355 0.0089815 0.00997944 0.0109774 0.0119753 0.0129733 0.0139712 0.0149692 0.0159671 0.0169651 0.017963 0.0189609 0.0199589 0.0209568 0.0219548 0.0229527 0.0239507 0.0249486 0.0259466 0.0269445 0.0279424 0.0289404 0.0299383 0.0309363 0.0319342 0.0329322 0.0339301 0.034928 0.035926 0.0369239 0.0379219 -0.000997944 0 0.000997944 0.00199589 0.00299383 0.00399178 0.00498972 0.00598767 0.00698561 0.00798355 0.0089815 0.00997944 0.0109774 0.0119753 0.0129733 0.0139712 0.0149692 0.0159671 0.0169651 0.017963 0.0189609 0.0199589 0.0209568 0.0219548 0.0229527 0.0239507 0.0249486 0.0259466 0.0269445 0.0279424 0.0289404 0.0299383 0.0309363 0.0319342 0.0329322 0.0339301 0.034928 0.035926 0.0369239 0.0379219 

0 0 0 0 0 0 0 0 0 0 0 0 0 0 0 0 0 0 0 0 0 37.5431 61.5226 54.0124 37.4629 38.9235 66.4214 96.892 96.067 56.3509 7.74641 -21.5813 -32.7424 -40.4675 -44.8757 -38.2216 -25.2009 -9.62397 0 0 0 0 0 0 0 0 0 0 0 0 0 0 0 0 0 0 0 0 0 0 0 -7.74027 -6.59926 48.7008 72.2882 48.7073 39.4282 53.8471 47.5153 13.3967 -14.5431 -17.7587 -12.3611 -8.0918 -3.9556 -6.05945 -17.7789 -28.2688 0 0 

ZONE T="Ephi", I=40, J=2, DATAPACKING=BLOCK
0.00432606 0.00432606 0.00432606 0.00432606 0.00432606 0.00432606 0.00432606 0.00432606 0.00432606 0.00432606 0.00432606 0.00432606 0.00432606 0.00432606 0.00432606 0.00432606 0.00432606 0.00432606 0.00432606 0.00432606 0.00432606 0.00432606 0.00432606 0.00432606 0.00432606 0.00432606 0.00432606 0.00432606 0.00432606 0.00432606 0.00432606 0.00432606 0.00432606 0.00432606 0.00432606 0.00432606 0.00432606 0.00432606 0.00432606 0.00432606 0.00532606 0.00532606 0.00532606 0.00532606 0.00532606 0.00532606 0.00532606 0.00532606 0.00532606 0.00532606 0.00532606 0.00532606 0.00532606 0.00532606 0.00532606 0.00532606 0.00532606 0.00532606 0.00532606 0.00532606 0.00532606 0.00532606 0.00532606 0.00532606 0.00532606 0.00532606 0.00532606 0.00532606 0.00532606 0.00532606 0.00532606 0.00532606 0.00532606 0.00532606 0.00532606 0.00532606 0.00532606 0.00532606 0.00532606 0.00532606 

-0.000997944 0 0.000997944 0.00199589 0.00299383 0.00399178 0.00498972 0.00598767 0.00698561 0.00798355 0.0089815 0.00997944 0.0109774 0.0119753 0.0129733 0.0139712 0.0149692 0.0159671 0.0169651 0.017963 0.0189609 0.0199589 0.0209568 0.0219548 0.0229527 0.0239507 0.0249486 0.0259466 0.0269445 0.0279424 0.0289404 0.0299383 0.0309363 0.0319342 0.0329322 0.0339301 0.034928 0.035926 0.0369239 0.0379219 -0.000997944 0 0.000997944 0.00199589 0.00299383 0.00399178 0.00498972 0.00598767 0.00698561 0.00798355 0.0089815 0.00997944 0.0109774 0.0119753 0.0129733 0.0139712 0.0149692 0.0159671 0.0169651 0.017963 0.0189609 0.0199589 0.0209568 0.0219548 0.0229527 0.0239507 0.0249486 0.0259466 0.0269445 0.0279424 0.0289404 0.0299383 0.0309363 0.0319342 0.0329322 0.0339301 0.034928 0.035926 0.0369239 0.0379219 

0 0 0 0 0 0 0 0 0 0 0 0 0 0 0 0 0 0 0 0 0 -7.74027 -6.59926 48.7008 72.2882 48.7073 39.4282 53.8471 47.5153 13.3967 -14.5431 -17.7587 -12.3611 -8.0918 -3.9556 -6.05945 -17.7789 -28.2688 0 0 0 0 0 0 0 0 0 0 0 0 0 0 0 0 0 0 0 0 0 0 0 15.2385 14.9644 76.9488 107.853 82.5554 42.4881 11.902 -9.52012 -14.7149 -14.8253 -24.4024 -41.5331 -44.6079 -36.7487 -37.74 -35.2257 -23.9793 0 0 

ZONE T="Ephi", I=40, J=2, DATAPACKING=BLOCK
0.00532606 0.00532606 0.00532606 0.00532606 0.00532606 0.00532606 0.00532606 0.00532606 0.00532606 0.00532606 0.00532606 0.00532606 0.00532606 0.00532606 0.00532606 0.00532606 0.00532606 0.00532606 0.00532606 0.00532606 0.00532606 0.00532606 0.00532606 0.00532606 0.00532606 0.00532606 0.00532606 0.00532606 0.00532606 0.00532606 0.00532606 0.00532606 0.00532606 0.00532606 0.00532606 0.00532606 0.00532606 0.00532606 0.00532606 0.00532606 0.00632606 0.00632606 0.00632606 0.00632606 0.00632606 0.00632606 0.00632606 0.00632606 0.00632606 0.00632606 0.00632606 0.00632606 0.00632606 0.00632606 0.00632606 0.00632606 0.00632606 0.00632606 0.00632606 0.00632606 0.00632606 0.00632606 0.00632606 0.00632606 0.00632606 0.00632606 0.00632606 0.00632606 0.00632606 0.00632606 0.00632606 0.00632606 0.00632606 0.00632606 0.00632606 0.00632606 0.00632606 0.00632606 0.00632606 0.00632606 

-0.000997944 0 0.000997944 0.00199589 0.00299383 0.00399178 0.00498972 0.00598767 0.00698561 0.00798355 0.0089815 0.00997944 0.0109774 0.0119753 0.0129733 0.0139712 0.0149692 0.0159671 0.0169651 0.017963 0.0189609 0.0199589 0.0209568 0.0219548 0.0229527 0.0239507 0.0249486 0.0259466 0.0269445 0.0279424 0.0289404 0.0299383 0.0309363 0.0319342 0.0329322 0.0339301 0.034928 0.035926 0.0369239 0.0379219 -0.000997944 0 0.000997944 0.00199589 0.00299383 0.00399178 0.00498972 0.00598767 0.00698561 0.00798355 0.0089815 0.00997944 0.0109774 0.0119753 0.0129733 0.0139712 0.0149692 0.0159671 0.0169651 0.017963 0.0189609 0.0199589 0.0209568 0.0219548 0.0229527 0.0239507 0.0249486 0.0259466 0.0269445 0.0279424 0.0289404 0.0299383 0.0309363 0.0319342 0.0329322 0.0339301 0.034928 0.035926 0.0369239 0.0379219 

0 0 0 0 0 0 0 0 0 0 0 0 0 0 0 0 0 0 0 0 0 15.2385 14.9644 76.9488 107.853 82.5554 42.4881 11.902 -9.52012 -14.7149 -14.8253 -24.4024 -41.5331 -44.6079 -36.7487 -37.74 -35.2257 -23.9793 0 0 0 0 0 0 0 0 0 0 0 0 0 0 0 0 0 0 0 0 0 0 0 61.0657 80.6876 90.0257 110.678 122.474 78.3978 16.1037 4.05039 30.2822 25.5174 -27.7779 -75.9675 -91.4176 -90.4625 -79.1405 -41.5869 -0.198364 0 0 

ZONE T="Ephi", I=40, J=2, DATAPACKING=BLOCK
0.00632606 0.00632606 0.00632606 0.00632606 0.00632606 0.00632606 0.00632606 0.00632606 0.00632606 0.00632606 0.00632606 0.00632606 0.00632606 0.00632606 0.00632606 0.00632606 0.00632606 0.00632606 0.00632606 0.00632606 0.00632606 0.00632606 0.00632606 0.00632606 0.00632606 0.00632606 0.00632606 0.00632606 0.00632606 0.00632606 0.00632606 0.00632606 0.00632606 0.00632606 0.00632606 0.00632606 0.00632606 0.00632606 0.00632606 0.00632606 0.00732606 0.00732606 0.00732606 0.00732606 0.00732606 0.00732606 0.00732606 0.00732606 0.00732606 0.00732606 0.00732606 0.00732606 0.00732606 0.00732606 0.00732606 0.00732606 0.00732606 0.00732606 0.00732606 0.00732606 0.00732606 0.00732606 0.00732606 0.00732606 0.00732606 0.00732606 0.00732606 0.00732606 0.00732606 0.00732606 0.00732606 0.00732606 0.00732606 0.00732606 0.00732606 0.00732606 0.00732606 0.00732606 0.00732606 0.00732606 

-0.000997944 0 0.000997944 0.00199589 0.00299383 0.00399178 0.00498972 0.00598767 0.00698561 0.00798355 0.0089815 0.00997944 0.0109774 0.0119753 0.0129733 0.0139712 0.0149692 0.0159671 0.0169651 0.017963 0.0189609 0.0199589 0.0209568 0.0219548 0.0229527 0.0239507 0.0249486 0.0259466 0.0269445 0.0279424 0.0289404 0.0299383 0.0309363 0.0319342 0.0329322 0.0339301 0.034928 0.035926 0.0369239 0.0379219 -0.000997944 0 0.000997944 0.00199589 0.00299383 0.00399178 0.00498972 0.00598767 0.00698561 0.00798355 0.0089815 0.00997944 0.0109774 0.0119753 0.0129733 0.0139712 0.0149692 0.0159671 0.0169651 0.017963 0.0189609 0.0199589 0.0209568 0.0219548 0.0229527 0.0239507 0.0249486 0.0259466 0.0269445 0.0279424 0.0289404 0.0299383 0.0309363 0.0319342 0.0329322 0.0339301 0.034928 0.035926 0.0369239 0.0379219 

0 0 0 0 0 0 0 0 0 0 0 0 0 0 0 0 0 0 0 0 0 61.0657 80.6876 90.0257 110.678 122.474 78.3978 16.1037 4.05039 30.2822 25.5174 -27.7779 -75.9675 -91.4176 -90.4625 -79.1405 -41.5869 -0.198364 0 0 0 0 0 0 0 0 0 0 0 0 0 0 0 0 0 0 0 0 0 0 0 61.1547 92.066 57.3852 61.6419 79.7896 47.7737 13.2647 35.9543 55.1897 25.3318 -28.7144 -52.9961 -64.271 -69.1553 -42.1135 -12.4279 -2.13368 0 0 

ZONE T="Ephi", I=40, J=2, DATAPACKING=BLOCK
0.00732606 0.00732606 0.00732606 0.00732606 0.00732606 0.00732606 0.00732606 0.00732606 0.00732606 0.00732606 0.00732606 0.00732606 0.00732606 0.00732606 0.00732606 0.00732606 0.00732606 0.00732606 0.00732606 0.00732606 0.00732606 0.00732606 0.00732606 0.00732606 0.00732606 0.00732606 0.00732606 0.00732606 0.00732606 0.00732606 0.00732606 0.00732606 0.00732606 0.00732606 0.00732606 0.00732606 0.00732606 0.00732606 0.00732606 0.00732606 0.00832606 0.00832606 0.00832606 0.00832606 0.00832606 0.00832606 0.00832606 0.00832606 0.00832606 0.00832606 0.00832606 0.00832606 0.00832606 0.00832606 0.00832606 0.00832606 0.00832606 0.00832606 0.00832606 0.00832606 0.00832606 0.00832606 0.00832606 0.00832606 0.00832606 0.00832606 0.00832606 0.00832606 0.00832606 0.00832606 0.00832606 0.00832606 0.00832606 0.00832606 0.00832606 0.00832606 0.00832606 0.00832606 0.00832606 0.00832606 

-0.000997944 0 0.000997944 0.00199589 0.00299383 0.00399178 0.00498972 0.00598767 0.00698561 0.00798355 0.0089815 0.00997944 0.0109774 0.0119753 0.0129733 0.0139712 0.0149692 0.0159671 0.0169651 0.017963 0.0189609 0.0199589 0.0209568 0.0219548 0.0229527 0.0239507 0.0249486 0.0259466 0.0269445 0.0279424 0.0289404 0.0299383 0.0309363 0.0319342 0.0329322 0.0339301 0.034928 0.035926 0.0369239 0.0379219 -0.000997944 0 0.000997944 0.00199589 0.00299383 0.00399178 0.00498972 0.00598767 0.00698561 0.00798355 0.0089815 0.00997944 0.0109774 0.0119753 0.0129733 0.0139712 0.0149692 0.0159671 0.0169651 0.017963 0.0189609 0.0199589 0.0209568 0.0219548 0.0229527 0.0239507 0.0249486 0.0259466 0.0269445 0.0279424 0.0289404 0.0299383 0.0309363 0.0319342 0.0329322 0.0339301 0.034928 0.035926 0.0369239 0.0379219 

0 0 0 0 0 0 0 0 0 0 0 0 0 0 0 0 0 0 0 0 0 61.1547 92.066 57.3852 61.6419 79.7896 47.7737 13.2647 35.9543 55.1897 25.3318 -28.7144 -52.9961 -64.271 -69.1553 -42.1135 -12.4279 -2.13368 0 0 0 0 0 0 0 0 0 0 0 0 0 0 0 0 0 0 0 0 0 0 0 49.7572 83.4413 41.0389 3.80641 -19.6454 -14.0192 6.38743 5.66398 -38.608 -64.6258 -42.0675 -16.5685 -10.1379 9.47535 44.0029 20.3694 -30.4211 0 0 

ZONE T="Ephi", I=40, J=2, DATAPACKING=BLOCK
0.00832606 0.00832606 0.00832606 0.00832606 0.00832606 0.00832606 0.00832606 0.00832606 0.00832606 0.00832606 0.00832606 0.00832606 0.00832606 0.00832606 0.00832606 0.00832606 0.00832606 0.00832606 0.00832606 0.00832606 0.00832606 0.00832606 0.00832606 0.00832606 0.00832606 0.00832606 0.00832606 0.00832606 0.00832606 0.00832606 0.00832606 0.00832606 0.00832606 0.00832606 0.00832606 0.00832606 0.00832606 0.00832606 0.00832606 0.00832606 0.00932606 0.00932606 0.00932606 0.00932606 0.00932606 0.00932606 0.00932606 0.00932606 0.00932606 0.00932606 0.00932606 0.00932606 0.00932606 0.00932606 0.00932606 0.00932606 0.00932606 0.00932606 0.00932606 0.00932606 0.00932606 0.00932606 0.00932606 0.00932606 0.00932606 0.00932606 0.00932606 0.00932606 0.00932606 0.00932606 0.00932606 0.00932606 0.00932606 0.00932606 0.00932606 0.00932606 0.00932606 0.00932606 0.00932606 0.00932606 

-0.000997944 0 0.000997944 0.00199589 0.00299383 0.00399178 0.00498972 0.00598767 0.00698561 0.00798355 0.0089815 0.00997944 0.0109774 0.0119753 0.0129733 0.0139712 0.0149692 0.0159671 0.0169651 0.017963 0.0189609 0.0199589 0.0209568 0.0219548 0.0229527 0.0239507 0.0249486 0.0259466 0.0269445 0.0279424 0.0289404 0.0299383 0.0309363 0.0319342 0.0329322 0.0339301 0.034928 0.035926 0.0369239 0.0379219 -0.000997944 0 0.000997944 0.00199589 0.00299383 0.00399178 0.00498972 0.00598767 0.00698561 0.00798355 0.0089815 0.00997944 0.0109774 0.0119753 0.0129733 0.0139712 0.0149692 0.0159671 0.0169651 0.017963 0.0189609 0.0199589 0.0209568 0.0219548 0.0229527 0.0239507 0.0249486 0.0259466 0.0269445 0.0279424 0.0289404 0.0299383 0.0309363 0.0319342 0.0329322 0.0339301 0.034928 0.035926 0.0369239 0.0379219 

0 0 0 0 0 0 0 0 0 0 0 0 0 0 0 0 0 0 0 0 0 49.7572 83.4413 41.0389 3.80641 -19.6454 -14.0192 6.38743 5.66398 -38.608 -64.6258 -42.0675 -16.5685 -10.1379 9.47535 44.0029 20.3694 -30.4211 0 0 0 0 0 0 0 0 0 0 0 0 0 0 0 0 0 0 0 0 0 0 0 54.99 85.7328 63.0708 -2.47102 -33.351 8.24941 16.8152 -79.3186 -155.744 -130.052 -56.7364 -36.1765 -5.59358 52.0686 58.0159 13.6546 -29.6622 0 0 

ZONE T="Ephi", I=40, J=2, DATAPACKING=BLOCK
0.00932606 0.00932606 0.00932606 0.00932606 0.00932606 0.00932606 0.00932606 0.00932606 0.00932606 0.00932606 0.00932606 0.00932606 0.00932606 0.00932606 0.00932606 0.00932606 0.00932606 0.00932606 0.00932606 0.00932606 0.00932606 0.00932606 0.00932606 0.00932606 0.00932606 0.00932606 0.00932606 0.00932606 0.00932606 0.00932606 0.00932606 0.00932606 0.00932606 0.00932606 0.00932606 0.00932606 0.00932606 0.00932606 0.00932606 0.00932606 0.0103261 0.0103261 0.0103261 0.0103261 0.0103261 0.0103261 0.0103261 0.0103261 0.0103261 0.0103261 0.0103261 0.0103261 0.0103261 0.0103261 0.0103261 0.0103261 0.0103261 0.0103261 0.0103261 0.0103261 0.0103261 0.0103261 0.0103261 0.0103261 0.0103261 0.0103261 0.0103261 0.0103261 0.0103261 0.0103261 0.0103261 0.0103261 0.0103261 0.0103261 0.0103261 0.0103261 0.0103261 0.0103261 0.0103261 0.0103261 

-0.000997944 0 0.000997944 0.00199589 0.00299383 0.00399178 0.00498972 0.00598767 0.00698561 0.00798355 0.0089815 0.00997944 0.0109774 0.0119753 0.0129733 0.0139712 0.0149692 0.0159671 0.0169651 0.017963 0.0189609 0.0199589 0.0209568 0.0219548 0.0229527 0.0239507 0.0249486 0.0259466 0.0269445 0.0279424 0.0289404 0.0299383 0.0309363 0.0319342 0.0329322 0.0339301 0.034928 0.035926 0.0369239 0.0379219 -0.000997944 0 0.000997944 0.00199589 0.00299383 0.00399178 0.00498972 0.00598767 0.00698561 0.00798355 0.0089815 0.00997944 0.0109774 0.0119753 0.0129733 0.0139712 0.0149692 0.0159671 0.0169651 0.017963 0.0189609 0.0199589 0.0209568 0.0219548 0.0229527 0.0239507 0.0249486 0.0259466 0.0269445 0.0279424 0.0289404 0.0299383 0.0309363 0.0319342 0.0329322 0.0339301 0.034928 0.035926 0.0369239 0.0379219 

0 0 0 0 0 0 0 0 0 0 0 0 0 0 0 0 0 0 0 0 0 54.99 85.7328 63.0708 -2.47102 -33.351 8.24941 16.8152 -79.3186 -155.744 -130.052 -56.7364 -36.1765 -5.59358 52.0686 58.0159 13.6546 -29.6622 0 0 0 0 1846.98 647.73 365.607 218.498 11.3914 -135.116 -286.744 -273.681 11.1447 129.639 -18.5199 -101.763 -36.3099 23.8443 6.91604 -0.481815 -0.354085 2.50572 0 35.9687 44.3164 67.3133 38.8012 44.6026 56.7541 -1.43043 -114.878 -124.355 -80.6759 -73.7335 -72.7027 -26.5615 -3.66675 -46.6548 -29.4062 10.6923 0 0 

ZONE T="Ephi", I=40, J=2, DATAPACKING=BLOCK
0.0103261 0.0103261 0.0103261 0.0103261 0.0103261 0.0103261 0.0103261 0.0103261 0.0103261 0.0103261 0.0103261 0.0103261 0.0103261 0.0103261 0.0103261 0.0103261 0.0103261 0.0103261 0.0103261 0.0103261 0.0103261 0.0103261 0.0103261 0.0103261 0.0103261 0.0103261 0.0103261 0.0103261 0.0103261 0.0103261 0.0103261 0.0103261 0.0103261 0.0103261 0.0103261 0.0103261 0.0103261 0.0103261 0.0103261 0.0103261 0.0113261 0.0113261 0.0113261 0.0113261 0.0113261 0.0113261 0.0113261 0.0113261 0.0113261 0.0113261 0.0113261 0.0113261 0.0113261 0.0113261 0.0113261 0.0113261 0.0113261 0.0113261 0.0113261 0.0113261 0.0113261 0.0113261 0.0113261 0.0113261 0.0113261 0.0113261 0.0113261 0.0113261 0.0113261 0.0113261 0.0113261 0.0113261 0.0113261 0.0113261 0.0113261 0.0113261 0.0113261 0.0113261 0.0113261 0.0113261 

-0.000997944 0 0.000997944 0.00199589 0.00299383 0.00399178 0.00498972 0.00598767 0.00698561 0.00798355 0.0089815 0.00997944 0.0109774 0.0119753 0.0129733 0.0139712 0.0149692 0.0159671 0.0169651 0.017963 0.0189609 0.0199589 0.0209568 0.0219548 0.0229527 0.0239507 0.0249486 0.0259466 0.0269445 0.0279424 0.0289404 0.0299383 0.0309363 0.0319342 0.0329322 0.0339301 0.034928 0.035926 0.0369239 0.0379219 -0.000997944 0 0.000997944 0.00199589 0.00299383 0.00399178 0.00498972 0.00598767 0.00698561 0.00798355 0.0089815 0.00997944 0.0109774 0.0119753 0.0129733 0.0139712 0.0149692 0.0159671 0.0169651 0.017963 0.0189609 0.0199589 0.0209568 0.0219548 0.0229527 0.0239507 0.0249486 0.0259466 0.0269445 0.0279424 0.0289404 0.0299383 0.0309363 0.0319342 0.0329322 0.0339301 0.034928 0.035926 0.0369239 0.0379219 

0 0 1846.98 647.73 365.607 218.498 11.3914 -135.116 -286.744 -273.681 11.1447 129.639 -18.5199 -101.763 -36.3099 23.8443 6.91604 -0.481815 -0.354085 2.50572 0 35.9687 44.3164 67.3133 38.8012 44.6026 56.7541 -1.43043 -114.878 -124.355 -80.6759 -73.7335 -72.7027 -26.5615 -3.66675 -46.6548 -29.4062 10.6923 0 0 0 0 5132.17 3949.74 2847.37 1559.51 387.659 -215.966 -205.258 245.879 624.012 342.954 -105.293 -202.32 -34.5832 88.885 43.3301 -23.5499 -45.5552 -9.28516 0 -7.42873 -29.1249 29.6752 67.488 76.0035 22.5168 -45.3038 -37.4341 3.61957 -17.9115 -63.0256 -16.8754 -28.0042 -117.542 -137.284 -57.3855 21.1462 0 0 

ZONE T="Ephi", I=40, J=2, DATAPACKING=BLOCK
0.0113261 0.0113261 0.0113261 0.0113261 0.0113261 0.0113261 0.0113261 0.0113261 0.0113261 0.0113261 0.0113261 0.0113261 0.0113261 0.0113261 0.0113261 0.0113261 0.0113261 0.0113261 0.0113261 0.0113261 0.0113261 0.0113261 0.0113261 0.0113261 0.0113261 0.0113261 0.0113261 0.0113261 0.0113261 0.0113261 0.0113261 0.0113261 0.0113261 0.0113261 0.0113261 0.0113261 0.0113261 0.0113261 0.0113261 0.0113261 0.0123261 0.0123261 0.0123261 0.0123261 0.0123261 0.0123261 0.0123261 0.0123261 0.0123261 0.0123261 0.0123261 0.0123261 0.0123261 0.0123261 0.0123261 0.0123261 0.0123261 0.0123261 0.0123261 0.0123261 0.0123261 0.0123261 0.0123261 0.0123261 0.0123261 0.0123261 0.0123261 0.0123261 0.0123261 0.0123261 0.0123261 0.0123261 0.0123261 0.0123261 0.0123261 0.0123261 0.0123261 0.0123261 0.0123261 0.0123261 

-0.000997944 0 0.000997944 0.00199589 0.00299383 0.00399178 0.00498972 0.00598767 0.00698561 0.00798355 0.0089815 0.00997944 0.0109774 0.0119753 0.0129733 0.0139712 0.0149692 0.0159671 0.0169651 0.017963 0.0189609 0.0199589 0.0209568 0.0219548 0.0229527 0.0239507 0.0249486 0.0259466 0.0269445 0.0279424 0.0289404 0.0299383 0.0309363 0.0319342 0.0329322 0.0339301 0.034928 0.035926 0.0369239 0.0379219 -0.000997944 0 0.000997944 0.00199589 0.00299383 0.00399178 0.00498972 0.00598767 0.00698561 0.00798355 0.0089815 0.00997944 0.0109774 0.0119753 0.0129733 0.0139712 0.0149692 0.0159671 0.0169651 0.017963 0.0189609 0.0199589 0.0209568 0.0219548 0.0229527 0.0239507 0.0249486 0.0259466 0.0269445 0.0279424 0.0289404 0.0299383 0.0309363 0.0319342 0.0329322 0.0339301 0.034928 0.035926 0.0369239 0.0379219 
