TITLE="EPhi"
VARIABLES="z", "r", "EPhi"
ZONE T="Ephi", I=40, J=2, DATAPACKING=BLOCK
-0.00167394 -0.00167394 -0.00167394 -0.00167394 -0.00167394 -0.00167394 -0.00167394 -0.00167394 -0.00167394 -0.00167394 -0.00167394 -0.00167394 -0.00167394 -0.00167394 -0.00167394 -0.00167394 -0.00167394 -0.00167394 -0.00167394 -0.00167394 -0.00167394 -0.00167394 -0.00167394 -0.00167394 -0.00167394 -0.00167394 -0.00167394 -0.00167394 -0.00167394 -0.00167394 -0.00167394 -0.00167394 -0.00167394 -0.00167394 -0.00167394 -0.00167394 -0.00167394 -0.00167394 -0.00167394 -0.00167394 -0.000673938 -0.000673938 -0.000673938 -0.000673938 -0.000673938 -0.000673938 -0.000673938 -0.000673938 -0.000673938 -0.000673938 -0.000673938 -0.000673938 -0.000673938 -0.000673938 -0.000673938 -0.000673938 -0.000673938 -0.000673938 -0.000673938 -0.000673938 -0.000673938 -0.000673938 -0.000673938 -0.000673938 -0.000673938 -0.000673938 -0.000673938 -0.000673938 -0.000673938 -0.000673938 -0.000673938 -0.000673938 -0.000673938 -0.000673938 -0.000673938 -0.000673938 -0.000673938 -0.000673938 -0.000673938 -0.000673938 

-0.000997944 0 0.000997944 0.00199589 0.00299383 0.00399178 0.00498972 0.00598767 0.00698561 0.00798355 0.0089815 0.00997944 0.0109774 0.0119753 0.0129733 0.0139712 0.0149692 0.0159671 0.0169651 0.017963 0.0189609 0.0199589 0.0209568 0.0219548 0.0229527 0.0239507 0.0249486 0.0259466 0.0269445 0.0279424 0.0289404 0.0299383 0.0309363 0.0319342 0.0329322 0.0339301 0.034928 0.035926 0.0369239 0.0379219 -0.000997944 0 0.000997944 0.00199589 0.00299383 0.00399178 0.00498972 0.00598767 0.00698561 0.00798355 0.0089815 0.00997944 0.0109774 0.0119753 0.0129733 0.0139712 0.0149692 0.0159671 0.0169651 0.017963 0.0189609 0.0199589 0.0209568 0.0219548 0.0229527 0.0239507 0.0249486 0.0259466 0.0269445 0.0279424 0.0289404 0.0299383 0.0309363 0.0319342 0.0329322 0.0339301 0.034928 0.035926 0.0369239 0.0379219 

0 0 0 0 0 0 0 0 0 0 0 0 0 0 0 0 0 0 0 0 0 0 0 0 0 0 0 0 0 0 0 0 0 0 0 0 0 0 0 0 0 0 0 0 0 0 0 0 0 0 0 0 0 0 0 0 0 0 0 0 0 -60.4117 -92.7576 -107.913 -109.535 -107.857 -111.951 -123.501 -135.894 -140.219 -131.631 -111.146 -84.943 -60.628 -41.7501 -25.4047 -6.05813 17.645 0 0 

ZONE T="Ephi", I=40, J=2, DATAPACKING=BLOCK
-0.000673938 -0.000673938 -0.000673938 -0.000673938 -0.000673938 -0.000673938 -0.000673938 -0.000673938 -0.000673938 -0.000673938 -0.000673938 -0.000673938 -0.000673938 -0.000673938 -0.000673938 -0.000673938 -0.000673938 -0.000673938 -0.000673938 -0.000673938 -0.000673938 -0.000673938 -0.000673938 -0.000673938 -0.000673938 -0.000673938 -0.000673938 -0.000673938 -0.000673938 -0.000673938 -0.000673938 -0.000673938 -0.000673938 -0.000673938 -0.000673938 -0.000673938 -0.000673938 -0.000673938 -0.000673938 -0.000673938 0.000326062 0.000326062 0.000326062 0.000326062 0.000326062 0.000326062 0.000326062 0.000326062 0.000326062 0.000326062 0.000326062 0.000326062 0.000326062 0.000326062 0.000326062 0.000326062 0.000326062 0.000326062 0.000326062 0.000326062 0.000326062 0.000326062 0.000326062 0.000326062 0.000326062 0.000326062 0.000326062 0.000326062 0.000326062 0.000326062 0.000326062 0.000326062 0.000326062 0.000326062 0.000326062 0.000326062 0.000326062 0.000326062 0.000326062 0.000326062 

-0.000997944 0 0.000997944 0.00199589 0.00299383 0.00399178 0.00498972 0.00598767 0.00698561 0.00798355 0.0089815 0.00997944 0.0109774 0.0119753 0.0129733 0.0139712 0.0149692 0.0159671 0.0169651 0.017963 0.0189609 0.0199589 0.0209568 0.0219548 0.0229527 0.0239507 0.0249486 0.0259466 0.0269445 0.0279424 0.0289404 0.0299383 0.0309363 0.0319342 0.0329322 0.0339301 0.034928 0.035926 0.0369239 0.0379219 -0.000997944 0 0.000997944 0.00199589 0.00299383 0.00399178 0.00498972 0.00598767 0.00698561 0.00798355 0.0089815 0.00997944 0.0109774 0.0119753 0.0129733 0.0139712 0.0149692 0.0159671 0.0169651 0.017963 0.0189609 0.0199589 0.0209568 0.0219548 0.0229527 0.0239507 0.0249486 0.0259466 0.0269445 0.0279424 0.0289404 0.0299383 0.0309363 0.0319342 0.0329322 0.0339301 0.034928 0.035926 0.0369239 0.0379219 

0 0 0 0 0 0 0 0 0 0 0 0 0 0 0 0 0 0 0 0 0 -60.4117 -92.7576 -107.913 -109.535 -107.857 -111.951 -123.501 -135.894 -140.219 -131.631 -111.146 -84.943 -60.628 -41.7501 -25.4047 -6.05813 17.645 0 0 0 0 0 0 0 0 0 0 0 0 0 0 0 0 0 0 0 0 0 0 0 -53.2612 -66.0502 -98.8693 -134.536 -156.33 -162.51 -157.388 -146.62 -136.851 -129.309 -118.398 -99.3761 -74.3028 -48.377 -24.0922 -1.17429 21.2767 0 0 

ZONE T="Ephi", I=40, J=2, DATAPACKING=BLOCK
0.000326062 0.000326062 0.000326062 0.000326062 0.000326062 0.000326062 0.000326062 0.000326062 0.000326062 0.000326062 0.000326062 0.000326062 0.000326062 0.000326062 0.000326062 0.000326062 0.000326062 0.000326062 0.000326062 0.000326062 0.000326062 0.000326062 0.000326062 0.000326062 0.000326062 0.000326062 0.000326062 0.000326062 0.000326062 0.000326062 0.000326062 0.000326062 0.000326062 0.000326062 0.000326062 0.000326062 0.000326062 0.000326062 0.000326062 0.000326062 0.00132606 0.00132606 0.00132606 0.00132606 0.00132606 0.00132606 0.00132606 0.00132606 0.00132606 0.00132606 0.00132606 0.00132606 0.00132606 0.00132606 0.00132606 0.00132606 0.00132606 0.00132606 0.00132606 0.00132606 0.00132606 0.00132606 0.00132606 0.00132606 0.00132606 0.00132606 0.00132606 0.00132606 0.00132606 0.00132606 0.00132606 0.00132606 0.00132606 0.00132606 0.00132606 0.00132606 0.00132606 0.00132606 0.00132606 0.00132606 

-0.000997944 0 0.000997944 0.00199589 0.00299383 0.00399178 0.00498972 0.00598767 0.00698561 0.00798355 0.0089815 0.00997944 0.0109774 0.0119753 0.0129733 0.0139712 0.0149692 0.0159671 0.0169651 0.017963 0.0189609 0.0199589 0.0209568 0.0219548 0.0229527 0.0239507 0.0249486 0.0259466 0.0269445 0.0279424 0.0289404 0.0299383 0.0309363 0.0319342 0.0329322 0.0339301 0.034928 0.035926 0.0369239 0.0379219 -0.000997944 0 0.000997944 0.00199589 0.00299383 0.00399178 0.00498972 0.00598767 0.00698561 0.00798355 0.0089815 0.00997944 0.0109774 0.0119753 0.0129733 0.0139712 0.0149692 0.0159671 0.0169651 0.017963 0.0189609 0.0199589 0.0209568 0.0219548 0.0229527 0.0239507 0.0249486 0.0259466 0.0269445 0.0279424 0.0289404 0.0299383 0.0309363 0.0319342 0.0329322 0.0339301 0.034928 0.035926 0.0369239 0.0379219 

0 0 0 0 0 0 0 0 0 0 0 0 0 0 0 0 0 0 0 0 0 -53.2612 -66.0502 -98.8693 -134.536 -156.33 -162.51 -157.388 -146.62 -136.851 -129.309 -118.398 -99.3761 -74.3028 -48.377 -24.0922 -1.17429 21.2767 0 0 0 0 0 0 0 0 0 0 0 0 0 0 0 0 0 0 0 0 0 0 0 -53.0182 -56.9056 -93.3903 -141.96 -172.576 -172.886 -151.306 -128.364 -120.158 -125.6 -131.249 -123.71 -98.8169 -61.9969 -23.2889 8.65267 33.9226 0 0 

ZONE T="Ephi", I=40, J=2, DATAPACKING=BLOCK
0.00132606 0.00132606 0.00132606 0.00132606 0.00132606 0.00132606 0.00132606 0.00132606 0.00132606 0.00132606 0.00132606 0.00132606 0.00132606 0.00132606 0.00132606 0.00132606 0.00132606 0.00132606 0.00132606 0.00132606 0.00132606 0.00132606 0.00132606 0.00132606 0.00132606 0.00132606 0.00132606 0.00132606 0.00132606 0.00132606 0.00132606 0.00132606 0.00132606 0.00132606 0.00132606 0.00132606 0.00132606 0.00132606 0.00132606 0.00132606 0.00232606 0.00232606 0.00232606 0.00232606 0.00232606 0.00232606 0.00232606 0.00232606 0.00232606 0.00232606 0.00232606 0.00232606 0.00232606 0.00232606 0.00232606 0.00232606 0.00232606 0.00232606 0.00232606 0.00232606 0.00232606 0.00232606 0.00232606 0.00232606 0.00232606 0.00232606 0.00232606 0.00232606 0.00232606 0.00232606 0.00232606 0.00232606 0.00232606 0.00232606 0.00232606 0.00232606 0.00232606 0.00232606 0.00232606 0.00232606 

-0.000997944 0 0.000997944 0.00199589 0.00299383 0.00399178 0.00498972 0.00598767 0.00698561 0.00798355 0.0089815 0.00997944 0.0109774 0.0119753 0.0129733 0.0139712 0.0149692 0.0159671 0.0169651 0.017963 0.0189609 0.0199589 0.0209568 0.0219548 0.0229527 0.0239507 0.0249486 0.0259466 0.0269445 0.0279424 0.0289404 0.0299383 0.0309363 0.0319342 0.0329322 0.0339301 0.034928 0.035926 0.0369239 0.0379219 -0.000997944 0 0.000997944 0.00199589 0.00299383 0.00399178 0.00498972 0.00598767 0.00698561 0.00798355 0.0089815 0.00997944 0.0109774 0.0119753 0.0129733 0.0139712 0.0149692 0.0159671 0.0169651 0.017963 0.0189609 0.0199589 0.0209568 0.0219548 0.0229527 0.0239507 0.0249486 0.0259466 0.0269445 0.0279424 0.0289404 0.0299383 0.0309363 0.0319342 0.0329322 0.0339301 0.034928 0.035926 0.0369239 0.0379219 

0 0 0 0 0 0 0 0 0 0 0 0 0 0 0 0 0 0 0 0 0 -53.0182 -56.9056 -93.3903 -141.96 -172.576 -172.886 -151.306 -128.364 -120.158 -125.6 -131.249 -123.71 -98.8169 -61.9969 -23.2889 8.65267 33.9226 0 0 0 0 0 0 0 0 0 0 0 0 0 0 0 0 0 0 0 0 0 0 0 -82.3475 -109.321 -124.192 -143.793 -162.863 -163.404 -147.049 -131.23 -124.356 -123.45 -121.024 -107.881 -77.7411 -35.4644 3.73029 27.8247 40.396 0 0 

ZONE T="Ephi", I=40, J=2, DATAPACKING=BLOCK
0.00232606 0.00232606 0.00232606 0.00232606 0.00232606 0.00232606 0.00232606 0.00232606 0.00232606 0.00232606 0.00232606 0.00232606 0.00232606 0.00232606 0.00232606 0.00232606 0.00232606 0.00232606 0.00232606 0.00232606 0.00232606 0.00232606 0.00232606 0.00232606 0.00232606 0.00232606 0.00232606 0.00232606 0.00232606 0.00232606 0.00232606 0.00232606 0.00232606 0.00232606 0.00232606 0.00232606 0.00232606 0.00232606 0.00232606 0.00232606 0.00332606 0.00332606 0.00332606 0.00332606 0.00332606 0.00332606 0.00332606 0.00332606 0.00332606 0.00332606 0.00332606 0.00332606 0.00332606 0.00332606 0.00332606 0.00332606 0.00332606 0.00332606 0.00332606 0.00332606 0.00332606 0.00332606 0.00332606 0.00332606 0.00332606 0.00332606 0.00332606 0.00332606 0.00332606 0.00332606 0.00332606 0.00332606 0.00332606 0.00332606 0.00332606 0.00332606 0.00332606 0.00332606 0.00332606 0.00332606 

-0.000997944 0 0.000997944 0.00199589 0.00299383 0.00399178 0.00498972 0.00598767 0.00698561 0.00798355 0.0089815 0.00997944 0.0109774 0.0119753 0.0129733 0.0139712 0.0149692 0.0159671 0.0169651 0.017963 0.0189609 0.0199589 0.0209568 0.0219548 0.0229527 0.0239507 0.0249486 0.0259466 0.0269445 0.0279424 0.0289404 0.0299383 0.0309363 0.0319342 0.0329322 0.0339301 0.034928 0.035926 0.0369239 0.0379219 -0.000997944 0 0.000997944 0.00199589 0.00299383 0.00399178 0.00498972 0.00598767 0.00698561 0.00798355 0.0089815 0.00997944 0.0109774 0.0119753 0.0129733 0.0139712 0.0149692 0.0159671 0.0169651 0.017963 0.0189609 0.0199589 0.0209568 0.0219548 0.0229527 0.0239507 0.0249486 0.0259466 0.0269445 0.0279424 0.0289404 0.0299383 0.0309363 0.0319342 0.0329322 0.0339301 0.034928 0.035926 0.0369239 0.0379219 

0 0 0 0 0 0 0 0 0 0 0 0 0 0 0 0 0 0 0 0 0 -82.3475 -109.321 -124.192 -143.793 -162.863 -163.404 -147.049 -131.23 -124.356 -123.45 -121.024 -107.881 -77.7411 -35.4644 3.73029 27.8247 40.396 0 0 0 0 0 0 0 0 0 0 0 0 0 0 0 0 0 0 0 0 0 0 0 -112.453 -173.487 -167 -148.576 -152.151 -167.133 -176.033 -169.784 -146.884 -118.188 -92.9285 -69.6989 -40.6014 -6.66466 20.0597 33.5124 37.7449 0 0 

ZONE T="Ephi", I=40, J=2, DATAPACKING=BLOCK
0.00332606 0.00332606 0.00332606 0.00332606 0.00332606 0.00332606 0.00332606 0.00332606 0.00332606 0.00332606 0.00332606 0.00332606 0.00332606 0.00332606 0.00332606 0.00332606 0.00332606 0.00332606 0.00332606 0.00332606 0.00332606 0.00332606 0.00332606 0.00332606 0.00332606 0.00332606 0.00332606 0.00332606 0.00332606 0.00332606 0.00332606 0.00332606 0.00332606 0.00332606 0.00332606 0.00332606 0.00332606 0.00332606 0.00332606 0.00332606 0.00432606 0.00432606 0.00432606 0.00432606 0.00432606 0.00432606 0.00432606 0.00432606 0.00432606 0.00432606 0.00432606 0.00432606 0.00432606 0.00432606 0.00432606 0.00432606 0.00432606 0.00432606 0.00432606 0.00432606 0.00432606 0.00432606 0.00432606 0.00432606 0.00432606 0.00432606 0.00432606 0.00432606 0.00432606 0.00432606 0.00432606 0.00432606 0.00432606 0.00432606 0.00432606 0.00432606 0.00432606 0.00432606 0.00432606 0.00432606 

-0.000997944 0 0.000997944 0.00199589 0.00299383 0.00399178 0.00498972 0.00598767 0.00698561 0.00798355 0.0089815 0.00997944 0.0109774 0.0119753 0.0129733 0.0139712 0.0149692 0.0159671 0.0169651 0.017963 0.0189609 0.0199589 0.0209568 0.0219548 0.0229527 0.0239507 0.0249486 0.0259466 0.0269445 0.0279424 0.0289404 0.0299383 0.0309363 0.0319342 0.0329322 0.0339301 0.034928 0.035926 0.0369239 0.0379219 -0.000997944 0 0.000997944 0.00199589 0.00299383 0.00399178 0.00498972 0.00598767 0.00698561 0.00798355 0.0089815 0.00997944 0.0109774 0.0119753 0.0129733 0.0139712 0.0149692 0.0159671 0.0169651 0.017963 0.0189609 0.0199589 0.0209568 0.0219548 0.0229527 0.0239507 0.0249486 0.0259466 0.0269445 0.0279424 0.0289404 0.0299383 0.0309363 0.0319342 0.0329322 0.0339301 0.034928 0.035926 0.0369239 0.0379219 

0 0 0 0 0 0 0 0 0 0 0 0 0 0 0 0 0 0 0 0 0 -112.453 -173.487 -167 -148.576 -152.151 -167.133 -176.033 -169.784 -146.884 -118.188 -92.9285 -69.6989 -40.6014 -6.66466 20.0597 33.5124 37.7449 0 0 0 0 0 0 0 0 0 0 0 0 0 0 0 0 0 0 0 0 0 0 0 -102.37 -169.83 -175.709 -154.885 -149.15 -169.437 -188.504 -177.793 -141.011 -101.467 -73.3241 -55.8182 -40.6526 -23.0207 -3.9971 17.071 35.9625 0 0 

ZONE T="Ephi", I=40, J=2, DATAPACKING=BLOCK
0.00432606 0.00432606 0.00432606 0.00432606 0.00432606 0.00432606 0.00432606 0.00432606 0.00432606 0.00432606 0.00432606 0.00432606 0.00432606 0.00432606 0.00432606 0.00432606 0.00432606 0.00432606 0.00432606 0.00432606 0.00432606 0.00432606 0.00432606 0.00432606 0.00432606 0.00432606 0.00432606 0.00432606 0.00432606 0.00432606 0.00432606 0.00432606 0.00432606 0.00432606 0.00432606 0.00432606 0.00432606 0.00432606 0.00432606 0.00432606 0.00532606 0.00532606 0.00532606 0.00532606 0.00532606 0.00532606 0.00532606 0.00532606 0.00532606 0.00532606 0.00532606 0.00532606 0.00532606 0.00532606 0.00532606 0.00532606 0.00532606 0.00532606 0.00532606 0.00532606 0.00532606 0.00532606 0.00532606 0.00532606 0.00532606 0.00532606 0.00532606 0.00532606 0.00532606 0.00532606 0.00532606 0.00532606 0.00532606 0.00532606 0.00532606 0.00532606 0.00532606 0.00532606 0.00532606 0.00532606 

-0.000997944 0 0.000997944 0.00199589 0.00299383 0.00399178 0.00498972 0.00598767 0.00698561 0.00798355 0.0089815 0.00997944 0.0109774 0.0119753 0.0129733 0.0139712 0.0149692 0.0159671 0.0169651 0.017963 0.0189609 0.0199589 0.0209568 0.0219548 0.0229527 0.0239507 0.0249486 0.0259466 0.0269445 0.0279424 0.0289404 0.0299383 0.0309363 0.0319342 0.0329322 0.0339301 0.034928 0.035926 0.0369239 0.0379219 -0.000997944 0 0.000997944 0.00199589 0.00299383 0.00399178 0.00498972 0.00598767 0.00698561 0.00798355 0.0089815 0.00997944 0.0109774 0.0119753 0.0129733 0.0139712 0.0149692 0.0159671 0.0169651 0.017963 0.0189609 0.0199589 0.0209568 0.0219548 0.0229527 0.0239507 0.0249486 0.0259466 0.0269445 0.0279424 0.0289404 0.0299383 0.0309363 0.0319342 0.0329322 0.0339301 0.034928 0.035926 0.0369239 0.0379219 

0 0 0 0 0 0 0 0 0 0 0 0 0 0 0 0 0 0 0 0 0 -102.37 -169.83 -175.709 -154.885 -149.15 -169.437 -188.504 -177.793 -141.011 -101.467 -73.3241 -55.8182 -40.6526 -23.0207 -3.9971 17.071 35.9625 0 0 0 0 0 0 0 0 0 0 0 0 0 0 0 0 0 0 0 0 0 0 0 -62.5267 -106.343 -155.121 -169.382 -155.798 -146.709 -142.34 -128.278 -107.294 -83.5084 -64.289 -51.7481 -45.3709 -38.1804 -19.8517 8.2329 38.3668 0 0 

ZONE T="Ephi", I=40, J=2, DATAPACKING=BLOCK
0.00532606 0.00532606 0.00532606 0.00532606 0.00532606 0.00532606 0.00532606 0.00532606 0.00532606 0.00532606 0.00532606 0.00532606 0.00532606 0.00532606 0.00532606 0.00532606 0.00532606 0.00532606 0.00532606 0.00532606 0.00532606 0.00532606 0.00532606 0.00532606 0.00532606 0.00532606 0.00532606 0.00532606 0.00532606 0.00532606 0.00532606 0.00532606 0.00532606 0.00532606 0.00532606 0.00532606 0.00532606 0.00532606 0.00532606 0.00532606 0.00632606 0.00632606 0.00632606 0.00632606 0.00632606 0.00632606 0.00632606 0.00632606 0.00632606 0.00632606 0.00632606 0.00632606 0.00632606 0.00632606 0.00632606 0.00632606 0.00632606 0.00632606 0.00632606 0.00632606 0.00632606 0.00632606 0.00632606 0.00632606 0.00632606 0.00632606 0.00632606 0.00632606 0.00632606 0.00632606 0.00632606 0.00632606 0.00632606 0.00632606 0.00632606 0.00632606 0.00632606 0.00632606 0.00632606 0.00632606 

-0.000997944 0 0.000997944 0.00199589 0.00299383 0.00399178 0.00498972 0.00598767 0.00698561 0.00798355 0.0089815 0.00997944 0.0109774 0.0119753 0.0129733 0.0139712 0.0149692 0.0159671 0.0169651 0.017963 0.0189609 0.0199589 0.0209568 0.0219548 0.0229527 0.0239507 0.0249486 0.0259466 0.0269445 0.0279424 0.0289404 0.0299383 0.0309363 0.0319342 0.0329322 0.0339301 0.034928 0.035926 0.0369239 0.0379219 -0.000997944 0 0.000997944 0.00199589 0.00299383 0.00399178 0.00498972 0.00598767 0.00698561 0.00798355 0.0089815 0.00997944 0.0109774 0.0119753 0.0129733 0.0139712 0.0149692 0.0159671 0.0169651 0.017963 0.0189609 0.0199589 0.0209568 0.0219548 0.0229527 0.0239507 0.0249486 0.0259466 0.0269445 0.0279424 0.0289404 0.0299383 0.0309363 0.0319342 0.0329322 0.0339301 0.034928 0.035926 0.0369239 0.0379219 

0 0 0 0 0 0 0 0 0 0 0 0 0 0 0 0 0 0 0 0 0 -62.5267 -106.343 -155.121 -169.382 -155.798 -146.709 -142.34 -128.278 -107.294 -83.5084 -64.289 -51.7481 -45.3709 -38.1804 -19.8517 8.2329 38.3668 0 0 0 0 0 0 0 0 0 0 0 0 0 0 0 0 0 0 0 0 0 0 0 -35.0334 -54.7865 -136.001 -182.414 -158.734 -109.037 -84.4911 -87.9815 -92.7667 -77.1202 -49.8779 -23.1157 -8.22806 -1.69694 11.0128 23.8639 42.9221 0 0 

ZONE T="Ephi", I=40, J=2, DATAPACKING=BLOCK
0.00632606 0.00632606 0.00632606 0.00632606 0.00632606 0.00632606 0.00632606 0.00632606 0.00632606 0.00632606 0.00632606 0.00632606 0.00632606 0.00632606 0.00632606 0.00632606 0.00632606 0.00632606 0.00632606 0.00632606 0.00632606 0.00632606 0.00632606 0.00632606 0.00632606 0.00632606 0.00632606 0.00632606 0.00632606 0.00632606 0.00632606 0.00632606 0.00632606 0.00632606 0.00632606 0.00632606 0.00632606 0.00632606 0.00632606 0.00632606 0.00732606 0.00732606 0.00732606 0.00732606 0.00732606 0.00732606 0.00732606 0.00732606 0.00732606 0.00732606 0.00732606 0.00732606 0.00732606 0.00732606 0.00732606 0.00732606 0.00732606 0.00732606 0.00732606 0.00732606 0.00732606 0.00732606 0.00732606 0.00732606 0.00732606 0.00732606 0.00732606 0.00732606 0.00732606 0.00732606 0.00732606 0.00732606 0.00732606 0.00732606 0.00732606 0.00732606 0.00732606 0.00732606 0.00732606 0.00732606 

-0.000997944 0 0.000997944 0.00199589 0.00299383 0.00399178 0.00498972 0.00598767 0.00698561 0.00798355 0.0089815 0.00997944 0.0109774 0.0119753 0.0129733 0.0139712 0.0149692 0.0159671 0.0169651 0.017963 0.0189609 0.0199589 0.0209568 0.0219548 0.0229527 0.0239507 0.0249486 0.0259466 0.0269445 0.0279424 0.0289404 0.0299383 0.0309363 0.0319342 0.0329322 0.0339301 0.034928 0.035926 0.0369239 0.0379219 -0.000997944 0 0.000997944 0.00199589 0.00299383 0.00399178 0.00498972 0.00598767 0.00698561 0.00798355 0.0089815 0.00997944 0.0109774 0.0119753 0.0129733 0.0139712 0.0149692 0.0159671 0.0169651 0.017963 0.0189609 0.0199589 0.0209568 0.0219548 0.0229527 0.0239507 0.0249486 0.0259466 0.0269445 0.0279424 0.0289404 0.0299383 0.0309363 0.0319342 0.0329322 0.0339301 0.034928 0.035926 0.0369239 0.0379219 

0 0 0 0 0 0 0 0 0 0 0 0 0 0 0 0 0 0 0 0 0 -35.0334 -54.7865 -136.001 -182.414 -158.734 -109.037 -84.4911 -87.9815 -92.7667 -77.1202 -49.8779 -23.1157 -8.22806 -1.69694 11.0128 23.8639 42.9221 0 0 0 0 0 0 0 0 0 0 0 0 0 0 0 0 0 0 0 0 0 0 0 -43.7394 -57.4353 -116.191 -152.129 -131.788 -90.2278 -77.6085 -88.1765 -87.8371 -66.986 -26.4657 15.791 41.9318 48.5375 44.7197 38.0228 45.4386 0 0 

ZONE T="Ephi", I=40, J=2, DATAPACKING=BLOCK
0.00732606 0.00732606 0.00732606 0.00732606 0.00732606 0.00732606 0.00732606 0.00732606 0.00732606 0.00732606 0.00732606 0.00732606 0.00732606 0.00732606 0.00732606 0.00732606 0.00732606 0.00732606 0.00732606 0.00732606 0.00732606 0.00732606 0.00732606 0.00732606 0.00732606 0.00732606 0.00732606 0.00732606 0.00732606 0.00732606 0.00732606 0.00732606 0.00732606 0.00732606 0.00732606 0.00732606 0.00732606 0.00732606 0.00732606 0.00732606 0.00832606 0.00832606 0.00832606 0.00832606 0.00832606 0.00832606 0.00832606 0.00832606 0.00832606 0.00832606 0.00832606 0.00832606 0.00832606 0.00832606 0.00832606 0.00832606 0.00832606 0.00832606 0.00832606 0.00832606 0.00832606 0.00832606 0.00832606 0.00832606 0.00832606 0.00832606 0.00832606 0.00832606 0.00832606 0.00832606 0.00832606 0.00832606 0.00832606 0.00832606 0.00832606 0.00832606 0.00832606 0.00832606 0.00832606 0.00832606 

-0.000997944 0 0.000997944 0.00199589 0.00299383 0.00399178 0.00498972 0.00598767 0.00698561 0.00798355 0.0089815 0.00997944 0.0109774 0.0119753 0.0129733 0.0139712 0.0149692 0.0159671 0.0169651 0.017963 0.0189609 0.0199589 0.0209568 0.0219548 0.0229527 0.0239507 0.0249486 0.0259466 0.0269445 0.0279424 0.0289404 0.0299383 0.0309363 0.0319342 0.0329322 0.0339301 0.034928 0.035926 0.0369239 0.0379219 -0.000997944 0 0.000997944 0.00199589 0.00299383 0.00399178 0.00498972 0.00598767 0.00698561 0.00798355 0.0089815 0.00997944 0.0109774 0.0119753 0.0129733 0.0139712 0.0149692 0.0159671 0.0169651 0.017963 0.0189609 0.0199589 0.0209568 0.0219548 0.0229527 0.0239507 0.0249486 0.0259466 0.0269445 0.0279424 0.0289404 0.0299383 0.0309363 0.0319342 0.0329322 0.0339301 0.034928 0.035926 0.0369239 0.0379219 

0 0 0 0 0 0 0 0 0 0 0 0 0 0 0 0 0 0 0 0 0 -43.7394 -57.4353 -116.191 -152.129 -131.788 -90.2278 -77.6085 -88.1765 -87.8371 -66.986 -26.4657 15.791 41.9318 48.5375 44.7197 38.0228 45.4386 0 0 0 0 0 0 0 0 0 0 0 0 0 0 0 0 0 0 0 0 0 0 0 -74.3178 -89.6902 -67.4414 -63.852 -87.0549 -105.84 -92.3576 -66.7732 -50.1007 -38.9458 -0.357938 39.5142 60.9122 56.9467 32.1701 28.0767 38.2535 0 0 

ZONE T="Ephi", I=40, J=2, DATAPACKING=BLOCK
0.00832606 0.00832606 0.00832606 0.00832606 0.00832606 0.00832606 0.00832606 0.00832606 0.00832606 0.00832606 0.00832606 0.00832606 0.00832606 0.00832606 0.00832606 0.00832606 0.00832606 0.00832606 0.00832606 0.00832606 0.00832606 0.00832606 0.00832606 0.00832606 0.00832606 0.00832606 0.00832606 0.00832606 0.00832606 0.00832606 0.00832606 0.00832606 0.00832606 0.00832606 0.00832606 0.00832606 0.00832606 0.00832606 0.00832606 0.00832606 0.00932606 0.00932606 0.00932606 0.00932606 0.00932606 0.00932606 0.00932606 0.00932606 0.00932606 0.00932606 0.00932606 0.00932606 0.00932606 0.00932606 0.00932606 0.00932606 0.00932606 0.00932606 0.00932606 0.00932606 0.00932606 0.00932606 0.00932606 0.00932606 0.00932606 0.00932606 0.00932606 0.00932606 0.00932606 0.00932606 0.00932606 0.00932606 0.00932606 0.00932606 0.00932606 0.00932606 0.00932606 0.00932606 0.00932606 0.00932606 

-0.000997944 0 0.000997944 0.00199589 0.00299383 0.00399178 0.00498972 0.00598767 0.00698561 0.00798355 0.0089815 0.00997944 0.0109774 0.0119753 0.0129733 0.0139712 0.0149692 0.0159671 0.0169651 0.017963 0.0189609 0.0199589 0.0209568 0.0219548 0.0229527 0.0239507 0.0249486 0.0259466 0.0269445 0.0279424 0.0289404 0.0299383 0.0309363 0.0319342 0.0329322 0.0339301 0.034928 0.035926 0.0369239 0.0379219 -0.000997944 0 0.000997944 0.00199589 0.00299383 0.00399178 0.00498972 0.00598767 0.00698561 0.00798355 0.0089815 0.00997944 0.0109774 0.0119753 0.0129733 0.0139712 0.0149692 0.0159671 0.0169651 0.017963 0.0189609 0.0199589 0.0209568 0.0219548 0.0229527 0.0239507 0.0249486 0.0259466 0.0269445 0.0279424 0.0289404 0.0299383 0.0309363 0.0319342 0.0329322 0.0339301 0.034928 0.035926 0.0369239 0.0379219 

0 0 0 0 0 0 0 0 0 0 0 0 0 0 0 0 0 0 0 0 0 -74.3178 -89.6902 -67.4414 -63.852 -87.0549 -105.84 -92.3576 -66.7732 -50.1007 -38.9458 -0.357938 39.5142 60.9122 56.9467 32.1701 28.0767 38.2535 0 0 0 0 0 0 0 0 0 0 0 0 0 0 0 0 0 0 0 0 0 0 0 -85.5803 -89.5789 3.88265 18.3596 -57.7587 -98.9631 -46.2619 2.77813 7.89037 14.2625 41.0491 55.2368 45.2483 19.567 -7.70661 7.86416 27.5607 0 0 

ZONE T="Ephi", I=40, J=2, DATAPACKING=BLOCK
0.00932606 0.00932606 0.00932606 0.00932606 0.00932606 0.00932606 0.00932606 0.00932606 0.00932606 0.00932606 0.00932606 0.00932606 0.00932606 0.00932606 0.00932606 0.00932606 0.00932606 0.00932606 0.00932606 0.00932606 0.00932606 0.00932606 0.00932606 0.00932606 0.00932606 0.00932606 0.00932606 0.00932606 0.00932606 0.00932606 0.00932606 0.00932606 0.00932606 0.00932606 0.00932606 0.00932606 0.00932606 0.00932606 0.00932606 0.00932606 0.0103261 0.0103261 0.0103261 0.0103261 0.0103261 0.0103261 0.0103261 0.0103261 0.0103261 0.0103261 0.0103261 0.0103261 0.0103261 0.0103261 0.0103261 0.0103261 0.0103261 0.0103261 0.0103261 0.0103261 0.0103261 0.0103261 0.0103261 0.0103261 0.0103261 0.0103261 0.0103261 0.0103261 0.0103261 0.0103261 0.0103261 0.0103261 0.0103261 0.0103261 0.0103261 0.0103261 0.0103261 0.0103261 0.0103261 0.0103261 

-0.000997944 0 0.000997944 0.00199589 0.00299383 0.00399178 0.00498972 0.00598767 0.00698561 0.00798355 0.0089815 0.00997944 0.0109774 0.0119753 0.0129733 0.0139712 0.0149692 0.0159671 0.0169651 0.017963 0.0189609 0.0199589 0.0209568 0.0219548 0.0229527 0.0239507 0.0249486 0.0259466 0.0269445 0.0279424 0.0289404 0.0299383 0.0309363 0.0319342 0.0329322 0.0339301 0.034928 0.035926 0.0369239 0.0379219 -0.000997944 0 0.000997944 0.00199589 0.00299383 0.00399178 0.00498972 0.00598767 0.00698561 0.00798355 0.0089815 0.00997944 0.0109774 0.0119753 0.0129733 0.0139712 0.0149692 0.0159671 0.0169651 0.017963 0.0189609 0.0199589 0.0209568 0.0219548 0.0229527 0.0239507 0.0249486 0.0259466 0.0269445 0.0279424 0.0289404 0.0299383 0.0309363 0.0319342 0.0329322 0.0339301 0.034928 0.035926 0.0369239 0.0379219 

0 0 0 0 0 0 0 0 0 0 0 0 0 0 0 0 0 0 0 0 0 -85.5803 -89.5789 3.88265 18.3596 -57.7587 -98.9631 -46.2619 2.77813 7.89037 14.2625 41.0491 55.2368 45.2483 19.567 -7.70661 7.86416 27.5607 0 0 0 0 350.44 339.299 415.359 390.498 249.152 50.6386 -63.7506 -6.7735 66.4846 64.1463 44.2946 -9.38309 -44.4968 -45.9031 -20.6682 -6.56913 1.11361 0.0734898 0 -61.1401 -46.2383 24.271 16.1225 -33.8546 -21.9441 26.9186 47.4311 66.6321 108.089 102.537 70.8246 28.171 2.03866 5.04443 12.4457 28.8097 0 0 

ZONE T="Ephi", I=40, J=2, DATAPACKING=BLOCK
0.0103261 0.0103261 0.0103261 0.0103261 0.0103261 0.0103261 0.0103261 0.0103261 0.0103261 0.0103261 0.0103261 0.0103261 0.0103261 0.0103261 0.0103261 0.0103261 0.0103261 0.0103261 0.0103261 0.0103261 0.0103261 0.0103261 0.0103261 0.0103261 0.0103261 0.0103261 0.0103261 0.0103261 0.0103261 0.0103261 0.0103261 0.0103261 0.0103261 0.0103261 0.0103261 0.0103261 0.0103261 0.0103261 0.0103261 0.0103261 0.0113261 0.0113261 0.0113261 0.0113261 0.0113261 0.0113261 0.0113261 0.0113261 0.0113261 0.0113261 0.0113261 0.0113261 0.0113261 0.0113261 0.0113261 0.0113261 0.0113261 0.0113261 0.0113261 0.0113261 0.0113261 0.0113261 0.0113261 0.0113261 0.0113261 0.0113261 0.0113261 0.0113261 0.0113261 0.0113261 0.0113261 0.0113261 0.0113261 0.0113261 0.0113261 0.0113261 0.0113261 0.0113261 0.0113261 0.0113261 

-0.000997944 0 0.000997944 0.00199589 0.00299383 0.00399178 0.00498972 0.00598767 0.00698561 0.00798355 0.0089815 0.00997944 0.0109774 0.0119753 0.0129733 0.0139712 0.0149692 0.0159671 0.0169651 0.017963 0.0189609 0.0199589 0.0209568 0.0219548 0.0229527 0.0239507 0.0249486 0.0259466 0.0269445 0.0279424 0.0289404 0.0299383 0.0309363 0.0319342 0.0329322 0.0339301 0.034928 0.035926 0.0369239 0.0379219 -0.000997944 0 0.000997944 0.00199589 0.00299383 0.00399178 0.00498972 0.00598767 0.00698561 0.00798355 0.0089815 0.00997944 0.0109774 0.0119753 0.0129733 0.0139712 0.0149692 0.0159671 0.0169651 0.017963 0.0189609 0.0199589 0.0209568 0.0219548 0.0229527 0.0239507 0.0249486 0.0259466 0.0269445 0.0279424 0.0289404 0.0299383 0.0309363 0.0319342 0.0329322 0.0339301 0.034928 0.035926 0.0369239 0.0379219 

0 0 350.44 339.299 415.359 390.498 249.152 50.6386 -63.7506 -6.7735 66.4846 64.1463 44.2946 -9.38309 -44.4968 -45.9031 -20.6682 -6.56913 1.11361 0.0734898 0 -61.1401 -46.2383 24.271 16.1225 -33.8546 -21.9441 26.9186 47.4311 66.6321 108.089 102.537 70.8246 28.171 2.03866 5.04443 12.4457 28.8097 0 0 0 0 387.783 353.633 249.679 -140.745 -621.991 -827.617 -770.017 -528.929 -259.378 -171.468 -256.177 -408.475 -375.231 -226.007 -96.5574 -86.5523 -100.533 -61.1225 0 -20.2774 -4.82666 -32.1527 -35.7404 6.63463 42.3246 11.5356 34.2288 118.83 163.835 108.352 69.6823 72.7408 97.3235 118.045 62.4709 35.4808 0 0 

ZONE T="Ephi", I=40, J=2, DATAPACKING=BLOCK
0.0113261 0.0113261 0.0113261 0.0113261 0.0113261 0.0113261 0.0113261 0.0113261 0.0113261 0.0113261 0.0113261 0.0113261 0.0113261 0.0113261 0.0113261 0.0113261 0.0113261 0.0113261 0.0113261 0.0113261 0.0113261 0.0113261 0.0113261 0.0113261 0.0113261 0.0113261 0.0113261 0.0113261 0.0113261 0.0113261 0.0113261 0.0113261 0.0113261 0.0113261 0.0113261 0.0113261 0.0113261 0.0113261 0.0113261 0.0113261 0.0123261 0.0123261 0.0123261 0.0123261 0.0123261 0.0123261 0.0123261 0.0123261 0.0123261 0.0123261 0.0123261 0.0123261 0.0123261 0.0123261 0.0123261 0.0123261 0.0123261 0.0123261 0.0123261 0.0123261 0.0123261 0.0123261 0.0123261 0.0123261 0.0123261 0.0123261 0.0123261 0.0123261 0.0123261 0.0123261 0.0123261 0.0123261 0.0123261 0.0123261 0.0123261 0.0123261 0.0123261 0.0123261 0.0123261 0.0123261 

-0.000997944 0 0.000997944 0.00199589 0.00299383 0.00399178 0.00498972 0.00598767 0.00698561 0.00798355 0.0089815 0.00997944 0.0109774 0.0119753 0.0129733 0.0139712 0.0149692 0.0159671 0.0169651 0.017963 0.0189609 0.0199589 0.0209568 0.0219548 0.0229527 0.0239507 0.0249486 0.0259466 0.0269445 0.0279424 0.0289404 0.0299383 0.0309363 0.0319342 0.0329322 0.0339301 0.034928 0.035926 0.0369239 0.0379219 -0.000997944 0 0.000997944 0.00199589 0.00299383 0.00399178 0.00498972 0.00598767 0.00698561 0.00798355 0.0089815 0.00997944 0.0109774 0.0119753 0.0129733 0.0139712 0.0149692 0.0159671 0.0169651 0.017963 0.0189609 0.0199589 0.0209568 0.0219548 0.0229527 0.0239507 0.0249486 0.0259466 0.0269445 0.0279424 0.0289404 0.0299383 0.0309363 0.0319342 0.0329322 0.0339301 0.034928 0.035926 0.0369239 0.0379219 
