TITLE="EPhi"
VARIABLES="x", "y", "EPhi"
ZONE T="Ephi", I=38, J=2, DATAPACKING=POINT
0 0 0
0.000997944 0 0
0.00199589 0 0
0.00299383 0 0
0.00399178 0 0
0.00498972 0 0
0.00598767 0 0
0.00698561 0 0
0.00798355 0 0
0.0089815 0 0
0.00997944 0 0
0.0109774 0 0
0.0119753 0 0
0.0129733 0 0
0.0139712 0 0
0.0149692 0 0
0.0159671 0 0
0.0169651 0 0
0.017963 0 0
0.0189609 0 0
0.0199589 0 -5.0636
0.0209568 0 -0.201296
0.0219548 0 12.5935
0.0229527 0 2.05412
0.0239507 0 -5.12265
0.0249486 0 23.8236
0.0259466 0 61.4135
0.0269445 0 65.9663
0.0279424 0 51.1384
0.0289404 0 49.1844
0.0299383 0 46.5803
0.0309363 0 27.1915
0.0319342 0 6.45106
0.0329322 0 0.942149
0.0339301 0 3.21421
0.034928 0 7.019
0.035926 0 10.6036
0.0369239 0 0
0 0 0
0.000997792 1.74165e-05 0
0.00199558 3.48331e-05 0
0.00299338 5.22496e-05 0
0.00399117 6.96661e-05 0
0.00498896 8.70826e-05 0
0.00598675 0.000104499 0
0.00698455 0.000121916 0
0.00798234 0.000139332 0
0.00898013 0.000156749 0
0.00997792 0.000174165 0
0.0109757 0.000191582 0
0.0119735 0.000208998 0
0.0129713 0.000226415 0
0.0139691 0.000243831 0
0.0149669 0.000261248 0
0.0159647 0.000278664 0
0.0169625 0.000296081 0
0.0179603 0.000313498 0
0.0189581 0.000330914 0
0.0199558 0.000348331 -5.53553
0.0209536 0.000365747 -1.00429
0.0219514 0.000383164 11.9998
0.0229492 0.00040058 2.11406
0.023947 0.000417997 -4.71386
0.0249448 0.000435413 23.8722
0.0259426 0.00045283 60.8551
0.0269404 0.000470246 65.1001
0.0279382 0.000487663 50.1817
0.028936 0.000505079 48.2066
0.0299338 0.000522496 45.7442
0.0309316 0.000539912 26.7842
0.0319294 0.000557329 6.45026
0.0329271 0.000574745 1.01244
0.0339249 0.000592162 3.20734
0.0349227 0.000609579 6.95751
0.0359205 0.000626995 10.5061
0.0369183 0.000644412 0
ZONE T="Ephi", I=38, J=2, DATAPACKING=POINT
0 0 0
0.000997792 1.74165e-05 0
0.00199558 3.48331e-05 0
0.00299338 5.22496e-05 0
0.00399117 6.96661e-05 0
0.00498896 8.70826e-05 0
0.00598675 0.000104499 0
0.00698455 0.000121916 0
0.00798234 0.000139332 0
0.00898013 0.000156749 0
0.00997792 0.000174165 0
0.0109757 0.000191582 0
0.0119735 0.000208998 0
0.0129713 0.000226415 0
0.0139691 0.000243831 0
0.0149669 0.000261248 0
0.0159647 0.000278664 0
0.0169625 0.000296081 0
0.0179603 0.000313498 0
0.0189581 0.000330914 0
0.0199558 0.000348331 -5.53553
0.0209536 0.000365747 -1.00429
0.0219514 0.000383164 11.9998
0.0229492 0.00040058 2.11406
0.023947 0.000417997 -4.71386
0.0249448 0.000435413 23.8722
0.0259426 0.00045283 60.8551
0.0269404 0.000470246 65.1001
0.0279382 0.000487663 50.1817
0.028936 0.000505079 48.2066
0.0299338 0.000522496 45.7442
0.0309316 0.000539912 26.7842
0.0319294 0.000557329 6.45026
0.0329271 0.000574745 1.01244
0.0339249 0.000592162 3.20734
0.0349227 0.000609579 6.95751
0.0359205 0.000626995 10.5061
0.0369183 0.000644412 0
0 0 0
0.000997336 3.48278e-05 0
0.00199467 6.96555e-05 0
0.00299201 0.000104483 0
0.00398935 0.000139311 0
0.00498668 0.000174139 0
0.00598402 0.000208967 0
0.00698135 0.000243794 0
0.00797869 0.000278622 0
0.00897603 0.00031345 0
0.00997336 0.000348278 0
0.0109707 0.000383105 0
0.011968 0.000417933 0
0.0129654 0.000452761 0
0.0139627 0.000487589 0
0.01496 0.000522416 0
0.0159574 0.000557244 0
0.0169547 0.000592072 0
0.0179521 0.0006269 0
0.0189494 0.000661727 0
0.0199467 0.000696555 -6.00747
0.0209441 0.000731383 -1.80729
0.0219414 0.000766211 11.4061
0.0229387 0.000801038 2.17399
0.0239361 0.000835866 -4.30508
0.0249334 0.000870694 23.9207
0.0259307 0.000905522 60.2968
0.0269281 0.000940349 64.2339
0.0279254 0.000975177 49.2251
0.0289228 0.00101 47.2288
0.0299201 0.00104483 44.908
0.0309174 0.00107966 26.377
0.0319148 0.00111449 6.44945
0.0329121 0.00114932 1.08273
0.0339094 0.00118414 3.20048
0.0349068 0.00121897 6.89603
0.0359041 0.0012538 10.4086
0.0369014 0.00128863 0
ZONE T="Ephi", I=38, J=2, DATAPACKING=POINT
0 0 0
0.000997336 3.48278e-05 0
0.00199467 6.96555e-05 0
0.00299201 0.000104483 0
0.00398935 0.000139311 0
0.00498668 0.000174139 0
0.00598402 0.000208967 0
0.00698135 0.000243794 0
0.00797869 0.000278622 0
0.00897603 0.00031345 0
0.00997336 0.000348278 0
0.0109707 0.000383105 0
0.011968 0.000417933 0
0.0129654 0.000452761 0
0.0139627 0.000487589 0
0.01496 0.000522416 0
0.0159574 0.000557244 0
0.0169547 0.000592072 0
0.0179521 0.0006269 0
0.0189494 0.000661727 0
0.0199467 0.000696555 -6.00747
0.0209441 0.000731383 -1.80729
0.0219414 0.000766211 11.4061
0.0229387 0.000801038 2.17399
0.0239361 0.000835866 -4.30508
0.0249334 0.000870694 23.9207
0.0259307 0.000905522 60.2968
0.0269281 0.000940349 64.2339
0.0279254 0.000975177 49.2251
0.0289228 0.00101 47.2288
0.0299201 0.00104483 44.908
0.0309174 0.00107966 26.377
0.0319148 0.00111449 6.44945
0.0329121 0.00114932 1.08273
0.0339094 0.00118414 3.20048
0.0349068 0.00121897 6.89603
0.0359041 0.0012538 10.4086
0.0369014 0.00128863 0
0 0 0
0.000996577 5.22284e-05 0
0.00199315 0.000104457 0
0.00298973 0.000156685 0
0.00398631 0.000208913 0
0.00498288 0.000261142 0
0.00597946 0.00031337 0
0.00697604 0.000365599 0
0.00797261 0.000417827 0
0.00896919 0.000470055 0
0.00996577 0.000522284 0
0.0109623 0.000574512 0
0.0119589 0.00062674 0
0.0129555 0.000678969 0
0.0139521 0.000731197 0
0.0149486 0.000783426 0
0.0159452 0.000835654 0
0.0169418 0.000887882 0
0.0179384 0.000940111 0
0.018935 0.000992339 0
0.0199315 0.00104457 -6.47941
0.0209281 0.0010968 -2.61029
0.0219247 0.00114902 10.8123
0.0229213 0.00120125 2.23393
0.0239178 0.00125348 -3.89629
0.0249144 0.00130571 23.9693
0.025911 0.00135794 59.7385
0.0269076 0.00141017 63.3678
0.0279041 0.00146239 48.2684
0.0289007 0.00151462 46.251
0.0298973 0.00156685 44.0718
0.0308939 0.00161908 25.9698
0.0318905 0.00167131 6.44865
0.032887 0.00172354 1.15302
0.0338836 0.00177576 3.19361
0.0348802 0.00182799 6.83454
0.0358768 0.00188022 10.3112
0.0368733 0.00193245 0
ZONE T="Ephi", I=38, J=2, DATAPACKING=POINT
0 0 0
0.000996577 5.22284e-05 0
0.00199315 0.000104457 0
0.00298973 0.000156685 0
0.00398631 0.000208913 0
0.00498288 0.000261142 0
0.00597946 0.00031337 0
0.00697604 0.000365599 0
0.00797261 0.000417827 0
0.00896919 0.000470055 0
0.00996577 0.000522284 0
0.0109623 0.000574512 0
0.0119589 0.00062674 0
0.0129555 0.000678969 0
0.0139521 0.000731197 0
0.0149486 0.000783426 0
0.0159452 0.000835654 0
0.0169418 0.000887882 0
0.0179384 0.000940111 0
0.018935 0.000992339 0
0.0199315 0.00104457 -6.47941
0.0209281 0.0010968 -2.61029
0.0219247 0.00114902 10.8123
0.0229213 0.00120125 2.23393
0.0239178 0.00125348 -3.89629
0.0249144 0.00130571 23.9693
0.025911 0.00135794 59.7385
0.0269076 0.00141017 63.3678
0.0279041 0.00146239 48.2684
0.0289007 0.00151462 46.251
0.0298973 0.00156685 44.0718
0.0308939 0.00161908 25.9698
0.0318905 0.00167131 6.44865
0.032887 0.00172354 1.15302
0.0338836 0.00177576 3.19361
0.0348802 0.00182799 6.83454
0.0358768 0.00188022 10.3112
0.0368733 0.00193245 0
0 0 0
0.000995513 6.96131e-05 0
0.00199103 0.000139226 0
0.00298654 0.000208839 0
0.00398205 0.000278452 0
0.00497757 0.000348065 0
0.00597308 0.000417678 0
0.00696859 0.000487292 0
0.00796411 0.000556905 0
0.00895962 0.000626518 0
0.00995513 0.000696131 0
0.0109506 0.000765744 0
0.0119462 0.000835357 0
0.0129417 0.00090497 0
0.0139372 0.000974583 0
0.0149327 0.0010442 0
0.0159282 0.00111381 0
0.0169237 0.00118342 0
0.0179192 0.00125304 0
0.0189148 0.00132265 0
0.0199103 0.00139226 -6.95135
0.0209058 0.00146187 -3.41328
0.0219013 0.00153149 10.2186
0.0228968 0.0016011 2.29386
0.0238923 0.00167071 -3.4875
0.0248878 0.00174033 24.0179
0.0258833 0.00180994 59.1801
0.0268789 0.00187955 62.5016
0.0278744 0.00194917 47.3118
0.0288699 0.00201878 45.2732
0.0298654 0.00208839 43.2357
0.0308609 0.00215801 25.5625
0.0318564 0.00222762 6.44785
0.0328519 0.00229723 1.22331
0.0338475 0.00236684 3.18675
0.034843 0.00243646 6.77306
0.0358385 0.00250607 10.2137
0.036834 0.00257568 0
ZONE T="Ephi", I=38, J=2, DATAPACKING=POINT
0 0 0
0.000995513 6.96131e-05 0
0.00199103 0.000139226 0
0.00298654 0.000208839 0
0.00398205 0.000278452 0
0.00497757 0.000348065 0
0.00597308 0.000417678 0
0.00696859 0.000487292 0
0.00796411 0.000556905 0
0.00895962 0.000626518 0
0.00995513 0.000696131 0
0.0109506 0.000765744 0
0.0119462 0.000835357 0
0.0129417 0.00090497 0
0.0139372 0.000974583 0
0.0149327 0.0010442 0
0.0159282 0.00111381 0
0.0169237 0.00118342 0
0.0179192 0.00125304 0
0.0189148 0.00132265 0
0.0199103 0.00139226 -6.95135
0.0209058 0.00146187 -3.41328
0.0219013 0.00153149 10.2186
0.0228968 0.0016011 2.29386
0.0238923 0.00167071 -3.4875
0.0248878 0.00174033 24.0179
0.0258833 0.00180994 59.1801
0.0268789 0.00187955 62.5016
0.0278744 0.00194917 47.3118
0.0288699 0.00201878 45.2732
0.0298654 0.00208839 43.2357
0.0308609 0.00215801 25.5625
0.0318564 0.00222762 6.44785
0.0328519 0.00229723 1.22331
0.0338475 0.00236684 3.18675
0.034843 0.00243646 6.77306
0.0358385 0.00250607 10.2137
0.036834 0.00257568 0
0 0 0
0.000994147 8.69766e-05 0
0.00198829 0.000173953 0
0.00298244 0.00026093 0
0.00397659 0.000347906 0
0.00497073 0.000434883 0
0.00596488 0.000521859 0
0.00695903 0.000608836 0
0.00795317 0.000695813 0
0.00894732 0.000782789 0
0.00994147 0.000869766 0
0.0109356 0.000956742 0
0.0119298 0.00104372 0
0.0129239 0.0011307 0
0.0139181 0.00121767 0
0.0149122 0.00130465 0
0.0159063 0.00139163 0
0.0169005 0.0014786 0
0.0178946 0.00156558 0
0.0188888 0.00165255 0
0.0198829 0.00173953 -7.42329
0.0208771 0.00182651 -4.21628
0.0218712 0.00191348 9.6249
0.0228654 0.00200046 2.3538
0.0238595 0.00208744 -3.07871
0.0248537 0.00217441 24.0665
0.0258478 0.00226139 58.6218
0.026842 0.00234837 61.6354
0.0278361 0.00243534 46.3551
0.0288303 0.00252232 44.2954
0.0298244 0.0026093 42.3995
0.0308186 0.00269627 25.1553
0.0318127 0.00278325 6.44705
0.0328068 0.00287023 1.2936
0.033801 0.0029572 3.17989
0.0347951 0.00304418 6.71157
0.0357893 0.00313116 10.1163
0.0367834 0.00321813 0
ZONE T="Ephi", I=38, J=2, DATAPACKING=POINT
0 0 0
0.000994147 8.69766e-05 0
0.00198829 0.000173953 0
0.00298244 0.00026093 0
0.00397659 0.000347906 0
0.00497073 0.000434883 0
0.00596488 0.000521859 0
0.00695903 0.000608836 0
0.00795317 0.000695813 0
0.00894732 0.000782789 0
0.00994147 0.000869766 0
0.0109356 0.000956742 0
0.0119298 0.00104372 0
0.0129239 0.0011307 0
0.0139181 0.00121767 0
0.0149122 0.00130465 0
0.0159063 0.00139163 0
0.0169005 0.0014786 0
0.0178946 0.00156558 0
0.0188888 0.00165255 0
0.0198829 0.00173953 -7.42329
0.0208771 0.00182651 -4.21628
0.0218712 0.00191348 9.6249
0.0228654 0.00200046 2.3538
0.0238595 0.00208744 -3.07871
0.0248537 0.00217441 24.0665
0.0258478 0.00226139 58.6218
0.026842 0.00234837 61.6354
0.0278361 0.00243534 46.3551
0.0288303 0.00252232 44.2954
0.0298244 0.0026093 42.3995
0.0308186 0.00269627 25.1553
0.0318127 0.00278325 6.44705
0.0328068 0.00287023 1.2936
0.033801 0.0029572 3.17989
0.0347951 0.00304418 6.71157
0.0357893 0.00313116 10.1163
0.0367834 0.00321813 0
0 0 0
0.000992477 0.000104314 0
0.00198495 0.000208627 0
0.00297743 0.000312941 0
0.00396991 0.000417254 0
0.00496239 0.000521568 0
0.00595486 0.000625881 0
0.00694734 0.000730195 0
0.00793982 0.000834509 0
0.0089323 0.000938822 0
0.00992477 0.00104314 0
0.0109173 0.00114745 0
0.0119097 0.00125176 0
0.0129022 0.00135608 0
0.0138947 0.00146039 0
0.0148872 0.0015647 0
0.0158796 0.00166902 0
0.0168721 0.00177333 0
0.0178646 0.00187764 0
0.0188571 0.00198196 0
0.0198495 0.00208627 -7.89523
0.020842 0.00219059 -5.01928
0.0218345 0.0022949 9.03117
0.022827 0.00239921 2.41373
0.0238195 0.00250353 -2.66992
0.0248119 0.00260784 24.115
0.0258044 0.00271215 58.0634
0.0267969 0.00281647 60.7692
0.0277894 0.00292078 45.3985
0.0287818 0.00302509 43.3176
0.0297743 0.00312941 41.5633
0.0307668 0.00323372 24.7481
0.0317593 0.00333803 6.44625
0.0327518 0.00344235 1.36388
0.0337442 0.00354666 3.17302
0.0347367 0.00365098 6.65008
0.0357292 0.00375529 10.0188
0.0367217 0.0038596 0
ZONE T="Ephi", I=38, J=2, DATAPACKING=POINT
0 0 0
0.000992477 0.000104314 0
0.00198495 0.000208627 0
0.00297743 0.000312941 0
0.00396991 0.000417254 0
0.00496239 0.000521568 0
0.00595486 0.000625881 0
0.00694734 0.000730195 0
0.00793982 0.000834509 0
0.0089323 0.000938822 0
0.00992477 0.00104314 0
0.0109173 0.00114745 0
0.0119097 0.00125176 0
0.0129022 0.00135608 0
0.0138947 0.00146039 0
0.0148872 0.0015647 0
0.0158796 0.00166902 0
0.0168721 0.00177333 0
0.0178646 0.00187764 0
0.0188571 0.00198196 0
0.0198495 0.00208627 -7.89523
0.020842 0.00219059 -5.01928
0.0218345 0.0022949 9.03117
0.022827 0.00239921 2.41373
0.0238195 0.00250353 -2.66992
0.0248119 0.00260784 24.115
0.0258044 0.00271215 58.0634
0.0267969 0.00281647 60.7692
0.0277894 0.00292078 45.3985
0.0287818 0.00302509 43.3176
0.0297743 0.00312941 41.5633
0.0307668 0.00323372 24.7481
0.0317593 0.00333803 6.44625
0.0327518 0.00344235 1.36388
0.0337442 0.00354666 3.17302
0.0347367 0.00365098 6.65008
0.0357292 0.00375529 10.0188
0.0367217 0.0038596 0
0 0 0
0.000990506 0.000121619 0
0.00198101 0.000243238 0
0.00297152 0.000364856 0
0.00396202 0.000486475 0
0.00495253 0.000608094 0
0.00594303 0.000729713 0
0.00693354 0.000851332 0
0.00792405 0.000972951 0
0.00891455 0.00109457 0
0.00990506 0.00121619 0
0.0108956 0.00133781 0
0.0118861 0.00145943 0
0.0128766 0.00158104 0
0.0138671 0.00170266 0
0.0148576 0.00182428 0
0.0158481 0.0019459 0
0.0168386 0.00206752 0
0.0178291 0.00218914 0
0.0188196 0.00231076 0
0.0198101 0.00243238 -8.36716
0.0208006 0.002554 -5.82228
0.0217911 0.00267561 8.43745
0.0227816 0.00279723 2.47367
0.0237721 0.00291885 -2.26113
0.0247626 0.00304047 24.1636
0.0257531 0.00316209 57.5051
0.0267437 0.00328371 59.9031
0.0277342 0.00340533 44.4418
0.0287247 0.00352695 42.3398
0.0297152 0.00364856 40.7272
0.0307057 0.00377018 24.3409
0.0316962 0.0038918 6.44545
0.0326867 0.00401342 1.43417
0.0336772 0.00413504 3.16616
0.0346677 0.00425666 6.5886
0.0356582 0.00437828 9.92132
0.0366487 0.0044999 0
ZONE T="Ephi", I=38, J=2, DATAPACKING=POINT
0 0 0
0.000990506 0.000121619 0
0.00198101 0.000243238 0
0.00297152 0.000364856 0
0.00396202 0.000486475 0
0.00495253 0.000608094 0
0.00594303 0.000729713 0
0.00693354 0.000851332 0
0.00792405 0.000972951 0
0.00891455 0.00109457 0
0.00990506 0.00121619 0
0.0108956 0.00133781 0
0.0118861 0.00145943 0
0.0128766 0.00158104 0
0.0138671 0.00170266 0
0.0148576 0.00182428 0
0.0158481 0.0019459 0
0.0168386 0.00206752 0
0.0178291 0.00218914 0
0.0188196 0.00231076 0
0.0198101 0.00243238 -8.36716
0.0208006 0.002554 -5.82228
0.0217911 0.00267561 8.43745
0.0227816 0.00279723 2.47367
0.0237721 0.00291885 -2.26113
0.0247626 0.00304047 24.1636
0.0257531 0.00316209 57.5051
0.0267437 0.00328371 59.9031
0.0277342 0.00340533 44.4418
0.0287247 0.00352695 42.3398
0.0297152 0.00364856 40.7272
0.0307057 0.00377018 24.3409
0.0316962 0.0038918 6.44545
0.0326867 0.00401342 1.43417
0.0336772 0.00413504 3.16616
0.0346677 0.00425666 6.5886
0.0356582 0.00437828 9.92132
0.0366487 0.0044999 0
0 0 0
0.000988232 0.000138887 0
0.00197646 0.000277774 0
0.0029647 0.000416661 0
0.00395293 0.000555548 0
0.00494116 0.000694435 0
0.00592939 0.000833322 0
0.00691763 0.000972209 0
0.00790586 0.0011111 0
0.00889409 0.00124998 0
0.00988232 0.00138887 0
0.0108706 0.00152776 0
0.0118588 0.00166664 0
0.012847 0.00180553 0
0.0138353 0.00194442 0
0.0148235 0.00208331 0
0.0158117 0.00222219 0
0.0168 0.00236108 0
0.0177882 0.00249997 0
0.0187764 0.00263885 0
0.0197646 0.00277774 -8.8391
0.0207529 0.00291663 -6.62527
0.0217411 0.00305551 7.84373
0.0227293 0.0031944 2.5336
0.0237176 0.00333329 -1.85234
0.0247058 0.00347218 24.2122
0.025694 0.00361106 56.9468
0.0266823 0.00374995 59.0369
0.0276705 0.00388884 43.4852
0.0286587 0.00402772 41.362
0.029647 0.00416661 39.891
0.0306352 0.0043055 23.9336
0.0316234 0.00444438 6.44464
0.0326117 0.00458327 1.50446
0.0335999 0.00472216 3.15929
0.0345881 0.00486105 6.52711
0.0355764 0.00499993 9.82385
0.0365646 0.00513882 0
ZONE T="Ephi", I=38, J=2, DATAPACKING=POINT
0 0 0
0.000988232 0.000138887 0
0.00197646 0.000277774 0
0.0029647 0.000416661 0
0.00395293 0.000555548 0
0.00494116 0.000694435 0
0.00592939 0.000833322 0
0.00691763 0.000972209 0
0.00790586 0.0011111 0
0.00889409 0.00124998 0
0.00988232 0.00138887 0
0.0108706 0.00152776 0
0.0118588 0.00166664 0
0.012847 0.00180553 0
0.0138353 0.00194442 0
0.0148235 0.00208331 0
0.0158117 0.00222219 0
0.0168 0.00236108 0
0.0177882 0.00249997 0
0.0187764 0.00263885 0
0.0197646 0.00277774 -8.8391
0.0207529 0.00291663 -6.62527
0.0217411 0.00305551 7.84373
0.0227293 0.0031944 2.5336
0.0237176 0.00333329 -1.85234
0.0247058 0.00347218 24.2122
0.025694 0.00361106 56.9468
0.0266823 0.00374995 59.0369
0.0276705 0.00388884 43.4852
0.0286587 0.00402772 41.362
0.029647 0.00416661 39.891
0.0306352 0.0043055 23.9336
0.0316234 0.00444438 6.44464
0.0326117 0.00458327 1.50446
0.0335999 0.00472216 3.15929
0.0345881 0.00486105 6.52711
0.0355764 0.00499993 9.82385
0.0365646 0.00513882 0
0 0 0
0.000985658 0.000156113 0
0.00197132 0.000312226 0
0.00295697 0.000468339 0
0.00394263 0.000624452 0
0.00492829 0.000780564 0
0.00591395 0.000936677 0
0.00689961 0.00109279 0
0.00788526 0.0012489 0
0.00887092 0.00140502 0
0.00985658 0.00156113 0
0.0108422 0.00171724 0
0.0118279 0.00187335 0
0.0128136 0.00202947 0
0.0137992 0.00218558 0
0.0147849 0.00234169 0
0.0157705 0.00249781 0
0.0167562 0.00265392 0
0.0177418 0.00281003 0
0.0187275 0.00296614 0
0.0197132 0.00312226 -9.31104
0.0206988 0.00327837 -7.42827
0.0216845 0.00343448 7.25001
0.0226701 0.0035906 2.59354
0.0236558 0.00374671 -1.44355
0.0246414 0.00390282 24.2608
0.0256271 0.00405893 56.3884
0.0266128 0.00421505 58.1707
0.0275984 0.00437116 42.5285
0.0285841 0.00452727 40.3842
0.0295697 0.00468339 39.0549
0.0305554 0.0048395 23.5264
0.0315411 0.00499561 6.44384
0.0325267 0.00515173 1.57475
0.0335124 0.00530784 3.15243
0.034498 0.00546395 6.46563
0.0354837 0.00562006 9.72639
0.0364693 0.00577618 0
ZONE T="Ephi", I=38, J=2, DATAPACKING=POINT
0 0 0
0.000985658 0.000156113 0
0.00197132 0.000312226 0
0.00295697 0.000468339 0
0.00394263 0.000624452 0
0.00492829 0.000780564 0
0.00591395 0.000936677 0
0.00689961 0.00109279 0
0.00788526 0.0012489 0
0.00887092 0.00140502 0
0.00985658 0.00156113 0
0.0108422 0.00171724 0
0.0118279 0.00187335 0
0.0128136 0.00202947 0
0.0137992 0.00218558 0
0.0147849 0.00234169 0
0.0157705 0.00249781 0
0.0167562 0.00265392 0
0.0177418 0.00281003 0
0.0187275 0.00296614 0
0.0197132 0.00312226 -9.31104
0.0206988 0.00327837 -7.42827
0.0216845 0.00343448 7.25001
0.0226701 0.0035906 2.59354
0.0236558 0.00374671 -1.44355
0.0246414 0.00390282 24.2608
0.0256271 0.00405893 56.3884
0.0266128 0.00421505 58.1707
0.0275984 0.00437116 42.5285
0.0285841 0.00452727 40.3842
0.0295697 0.00468339 39.0549
0.0305554 0.0048395 23.5264
0.0315411 0.00499561 6.44384
0.0325267 0.00515173 1.57475
0.0335124 0.00530784 3.15243
0.034498 0.00546395 6.46563
0.0354837 0.00562006 9.72639
0.0364693 0.00577618 0
0 0 0
0.000982783 0.000173291 0
0.00196557 0.000346582 0
0.00294835 0.000519874 0
0.00393113 0.000693165 0
0.00491392 0.000866456 0
0.0058967 0.00103975 0
0.00687948 0.00121304 0
0.00786227 0.00138633 0
0.00884505 0.00155962 0
0.00982783 0.00173291 0
0.0108106 0.0019062 0
0.0117934 0.00207949 0
0.0127762 0.00225279 0
0.013759 0.00242608 0
0.0147417 0.00259937 0
0.0157245 0.00277266 0
0.0167073 0.00294595 0
0.0176901 0.00311924 0
0.0186729 0.00329253 0
0.0196557 0.00346582 -9.78298
0.0206384 0.00363912 -8.23127
0.0216212 0.00381241 6.65629
0.022604 0.0039857 2.65348
0.0235868 0.00415899 -1.03476
0.0245696 0.00433228 24.3094
0.0255524 0.00450557 55.8301
0.0265351 0.00467886 57.3046
0.0275179 0.00485215 41.5719
0.0285007 0.00502544 39.4064
0.0294835 0.00519874 38.2187
0.0304663 0.00537203 23.1192
0.0314491 0.00554532 6.44304
0.0324318 0.00571861 1.64504
0.0334146 0.0058919 3.14557
0.0343974 0.00606519 6.40414
0.0353802 0.00623848 9.62892
0.036363 0.00641177 0
ZONE T="Ephi", I=38, J=2, DATAPACKING=POINT
0 0 0
0.000982783 0.000173291 0
0.00196557 0.000346582 0
0.00294835 0.000519874 0
0.00393113 0.000693165 0
0.00491392 0.000866456 0
0.0058967 0.00103975 0
0.00687948 0.00121304 0
0.00786227 0.00138633 0
0.00884505 0.00155962 0
0.00982783 0.00173291 0
0.0108106 0.0019062 0
0.0117934 0.00207949 0
0.0127762 0.00225279 0
0.013759 0.00242608 0
0.0147417 0.00259937 0
0.0157245 0.00277266 0
0.0167073 0.00294595 0
0.0176901 0.00311924 0
0.0186729 0.00329253 0
0.0196557 0.00346582 -9.78298
0.0206384 0.00363912 -8.23127
0.0216212 0.00381241 6.65629
0.022604 0.0039857 2.65348
0.0235868 0.00415899 -1.03476
0.0245696 0.00433228 24.3094
0.0255524 0.00450557 55.8301
0.0265351 0.00467886 57.3046
0.0275179 0.00485215 41.5719
0.0285007 0.00502544 39.4064
0.0294835 0.00519874 38.2187
0.0304663 0.00537203 23.1192
0.0314491 0.00554532 6.44304
0.0324318 0.00571861 1.64504
0.0334146 0.0058919 3.14557
0.0343974 0.00606519 6.40414
0.0353802 0.00623848 9.62892
0.036363 0.00641177 0
0 0 0
0.000979609 0.000190417 0
0.00195922 0.000380833 0
0.00293883 0.00057125 0
0.00391844 0.000761667 0
0.00489805 0.000952084 0
0.00587766 0.0011425 0
0.00685726 0.00133292 0
0.00783687 0.00152333 0
0.00881648 0.00171375 0
0.00979609 0.00190417 0
0.0107757 0.00209458 0
0.0117553 0.002285 0
0.0127349 0.00247542 0
0.0137145 0.00266583 0
0.0146941 0.00285625 0
0.0156737 0.00304667 0
0.0166534 0.00323708 0
0.017633 0.0034275 0
0.0186126 0.00361792 0
0.0195922 0.00380833 -10.2549
0.0205718 0.00399875 -9.03426
0.0215514 0.00418917 6.06256
0.022531 0.00437959 2.71341
0.0235106 0.00457 -0.625969
0.0244902 0.00476042 24.3579
0.0254698 0.00495084 55.2718
0.0264494 0.00514125 56.4384
0.0274291 0.00533167 40.6152
0.0284087 0.00552209 38.4286
0.0293883 0.0057125 37.3825
0.0303679 0.00590292 22.7119
0.0313475 0.00609334 6.44224
0.0323271 0.00628375 1.71533
0.0333067 0.00647417 3.1387
0.0342863 0.00666459 6.34266
0.0352659 0.006855 9.53146
0.0362455 0.00704542 0
ZONE T="Ephi", I=38, J=2, DATAPACKING=POINT
0 0 0
0.000979609 0.000190417 0
0.00195922 0.000380833 0
0.00293883 0.00057125 0
0.00391844 0.000761667 0
0.00489805 0.000952084 0
0.00587766 0.0011425 0
0.00685726 0.00133292 0
0.00783687 0.00152333 0
0.00881648 0.00171375 0
0.00979609 0.00190417 0
0.0107757 0.00209458 0
0.0117553 0.002285 0
0.0127349 0.00247542 0
0.0137145 0.00266583 0
0.0146941 0.00285625 0
0.0156737 0.00304667 0
0.0166534 0.00323708 0
0.017633 0.0034275 0
0.0186126 0.00361792 0
0.0195922 0.00380833 -10.2549
0.0205718 0.00399875 -9.03426
0.0215514 0.00418917 6.06256
0.022531 0.00437959 2.71341
0.0235106 0.00457 -0.625969
0.0244902 0.00476042 24.3579
0.0254698 0.00495084 55.2718
0.0264494 0.00514125 56.4384
0.0274291 0.00533167 40.6152
0.0284087 0.00552209 38.4286
0.0293883 0.0057125 37.3825
0.0303679 0.00590292 22.7119
0.0313475 0.00609334 6.44224
0.0323271 0.00628375 1.71533
0.0333067 0.00647417 3.1387
0.0342863 0.00666459 6.34266
0.0352659 0.006855 9.53146
0.0362455 0.00704542 0
0 0 0
0.000976137 0.000207484 0
0.00195227 0.000414969 0
0.00292841 0.000622453 0
0.00390455 0.000829937 0
0.00488068 0.00103742 0
0.00585682 0.00124491 0
0.00683296 0.00145239 0
0.00780909 0.00165987 0
0.00878523 0.00186736 0
0.00976137 0.00207484 0
0.0107375 0.00228233 0
0.0117136 0.00248981 0
0.0126898 0.0026973 0
0.0136659 0.00290478 0
0.0146421 0.00311226 0
0.0156182 0.00331975 0
0.0165943 0.00352723 0
0.0175705 0.00373472 0
0.0185466 0.0039422 0
0.0195227 0.00414969 -10.7269
0.0204989 0.00435717 -9.83726
0.021475 0.00456465 5.46884
0.0224511 0.00477214 2.77335
0.0234273 0.00497962 -0.21718
0.0244034 0.00518711 24.4065
0.0253796 0.00539459 54.7134
0.0263557 0.00560208 55.5722
0.0273318 0.00580956 39.6586
0.028308 0.00601704 37.4508
0.0292841 0.00622453 36.5464
0.0302602 0.00643201 22.3047
0.0312364 0.0066395 6.44144
0.0322125 0.00684698 1.78562
0.0331887 0.00705447 3.13184
0.0341648 0.00726195 6.28117
0.0351409 0.00746943 9.43399
0.0361171 0.00767692 0
ZONE T="Ephi", I=38, J=2, DATAPACKING=POINT
0 0 0
0.000976137 0.000207484 0
0.00195227 0.000414969 0
0.00292841 0.000622453 0
0.00390455 0.000829937 0
0.00488068 0.00103742 0
0.00585682 0.00124491 0
0.00683296 0.00145239 0
0.00780909 0.00165987 0
0.00878523 0.00186736 0
0.00976137 0.00207484 0
0.0107375 0.00228233 0
0.0117136 0.00248981 0
0.0126898 0.0026973 0
0.0136659 0.00290478 0
0.0146421 0.00311226 0
0.0156182 0.00331975 0
0.0165943 0.00352723 0
0.0175705 0.00373472 0
0.0185466 0.0039422 0
0.0195227 0.00414969 -10.7269
0.0204989 0.00435717 -9.83726
0.021475 0.00456465 5.46884
0.0224511 0.00477214 2.77335
0.0234273 0.00497962 -0.21718
0.0244034 0.00518711 24.4065
0.0253796 0.00539459 54.7134
0.0263557 0.00560208 55.5722
0.0273318 0.00580956 39.6586
0.028308 0.00601704 37.4508
0.0292841 0.00622453 36.5464
0.0302602 0.00643201 22.3047
0.0312364 0.0066395 6.44144
0.0322125 0.00684698 1.78562
0.0331887 0.00705447 3.13184
0.0341648 0.00726195 6.28117
0.0351409 0.00746943 9.43399
0.0361171 0.00767692 0
0 0 0
0.000972367 0.000224489 0
0.00194473 0.000448977 0
0.0029171 0.000673466 0
0.00388947 0.000897954 0
0.00486184 0.00112244 0
0.0058342 0.00134693 0
0.00680657 0.00157142 0
0.00777894 0.00179591 0
0.0087513 0.0020204 0
0.00972367 0.00224489 0
0.010696 0.00246937 0
0.0116684 0.00269386 0
0.0126408 0.00291835 0
0.0136131 0.00314284 0
0.0145855 0.00336733 0
0.0155579 0.00359182 0
0.0165302 0.00381631 0
0.0175026 0.0040408 0
0.018475 0.00426528 0
0.0194473 0.00448977 -11.1988
0.0204197 0.00471426 -10.6403
0.0213921 0.00493875 4.87512
0.0223644 0.00516324 2.83328
0.0233368 0.00538773 0.19161
0.0243092 0.00561222 24.4551
0.0252815 0.0058367 54.1551
0.0262539 0.00606119 54.7061
0.0272263 0.00628568 38.7019
0.0281986 0.00651017 36.473
0.029171 0.00673466 35.7102
0.0301434 0.00695915 21.8975
0.0311157 0.00718364 6.44064
0.0320881 0.00740812 1.85591
0.0330605 0.00763261 3.12498
0.0340328 0.0078571 6.21969
0.0350052 0.00808159 9.33653
0.0359776 0.00830608 0
ZONE T="Ephi", I=38, J=2, DATAPACKING=POINT
0 0 0
0.000972367 0.000224489 0
0.00194473 0.000448977 0
0.0029171 0.000673466 0
0.00388947 0.000897954 0
0.00486184 0.00112244 0
0.0058342 0.00134693 0
0.00680657 0.00157142 0
0.00777894 0.00179591 0
0.0087513 0.0020204 0
0.00972367 0.00224489 0
0.010696 0.00246937 0
0.0116684 0.00269386 0
0.0126408 0.00291835 0
0.0136131 0.00314284 0
0.0145855 0.00336733 0
0.0155579 0.00359182 0
0.0165302 0.00381631 0
0.0175026 0.0040408 0
0.018475 0.00426528 0
0.0194473 0.00448977 -11.1988
0.0204197 0.00471426 -10.6403
0.0213921 0.00493875 4.87512
0.0223644 0.00516324 2.83328
0.0233368 0.00538773 0.19161
0.0243092 0.00561222 24.4551
0.0252815 0.0058367 54.1551
0.0262539 0.00606119 54.7061
0.0272263 0.00628568 38.7019
0.0281986 0.00651017 36.473
0.029171 0.00673466 35.7102
0.0301434 0.00695915 21.8975
0.0311157 0.00718364 6.44064
0.0320881 0.00740812 1.85591
0.0330605 0.00763261 3.12498
0.0340328 0.0078571 6.21969
0.0350052 0.00808159 9.33653
0.0359776 0.00830608 0
0 0 0
0.000968301 0.000241425 0
0.0019366 0.000482849 0
0.0029049 0.000724274 0
0.0038732 0.000965698 0
0.00484151 0.00120712 0
0.00580981 0.00144855 0
0.00677811 0.00168997 0
0.00774641 0.0019314 0
0.00871471 0.00217282 0
0.00968301 0.00241425 0
0.0106513 0.00265567 0
0.0116196 0.00289709 0
0.0125879 0.00313852 0
0.0135562 0.00337994 0
0.0145245 0.00362137 0
0.0154928 0.00386279 0
0.0164611 0.00410422 0
0.0174294 0.00434564 0
0.0183977 0.00458707 0
0.019366 0.00482849 -11.6707
0.0203343 0.00506992 -11.4433
0.0213026 0.00531134 4.2814
0.0222709 0.00555277 2.89322
0.0232392 0.00579419 0.600399
0.0242075 0.00603561 24.5037
0.0251758 0.00627704 53.5967
0.0261441 0.00651846 53.8399
0.0271124 0.00675989 37.7452
0.0280807 0.00700131 35.4952
0.029049 0.00724274 34.874
0.0300173 0.00748416 21.4902
0.0309856 0.00772559 6.43984
0.0319539 0.00796701 1.9262
0.0329222 0.00820844 3.11811
0.0338905 0.00844986 6.1582
0.0348588 0.00869128 9.23906
0.0358271 0.00893271 0
ZONE T="Ephi", I=38, J=2, DATAPACKING=POINT
0 0 0
0.000968301 0.000241425 0
0.0019366 0.000482849 0
0.0029049 0.000724274 0
0.0038732 0.000965698 0
0.00484151 0.00120712 0
0.00580981 0.00144855 0
0.00677811 0.00168997 0
0.00774641 0.0019314 0
0.00871471 0.00217282 0
0.00968301 0.00241425 0
0.0106513 0.00265567 0
0.0116196 0.00289709 0
0.0125879 0.00313852 0
0.0135562 0.00337994 0
0.0145245 0.00362137 0
0.0154928 0.00386279 0
0.0164611 0.00410422 0
0.0174294 0.00434564 0
0.0183977 0.00458707 0
0.019366 0.00482849 -11.6707
0.0203343 0.00506992 -11.4433
0.0213026 0.00531134 4.2814
0.0222709 0.00555277 2.89322
0.0232392 0.00579419 0.600399
0.0242075 0.00603561 24.5037
0.0251758 0.00627704 53.5967
0.0261441 0.00651846 53.8399
0.0271124 0.00675989 37.7452
0.0280807 0.00700131 35.4952
0.029049 0.00724274 34.874
0.0300173 0.00748416 21.4902
0.0309856 0.00772559 6.43984
0.0319539 0.00796701 1.9262
0.0329222 0.00820844 3.11811
0.0338905 0.00844986 6.1582
0.0348588 0.00869128 9.23906
0.0358271 0.00893271 0
0 0 0
0.00096394 0.000258287 0
0.00192788 0.000516574 0
0.00289182 0.000774861 0
0.00385576 0.00103315 0
0.0048197 0.00129143 0
0.00578364 0.00154972 0
0.00674758 0.00180801 0
0.00771152 0.0020663 0
0.00867546 0.00232458 0
0.0096394 0.00258287 0
0.0106033 0.00284116 0
0.0115673 0.00309944 0
0.0125312 0.00335773 0
0.0134952 0.00361602 0
0.0144591 0.0038743 0
0.015423 0.00413259 0
0.016387 0.00439088 0
0.0173509 0.00464917 0
0.0183149 0.00490745 0
0.0192788 0.00516574 -12.1427
0.0202427 0.00542403 -12.2463
0.0212067 0.00568231 3.68767
0.0221706 0.0059406 2.95315
0.0231346 0.00619889 1.00919
0.0240985 0.00645717 24.5523
0.0250624 0.00671546 53.0384
0.0260264 0.00697375 52.9737
0.0269903 0.00723204 36.7886
0.0279543 0.00749032 34.5174
0.0289182 0.00774861 34.0379
0.0298821 0.0080069 21.083
0.0308461 0.00826518 6.43903
0.03181 0.00852347 1.99649
0.032774 0.00878176 3.11125
0.0337379 0.00904004 6.09672
0.0347018 0.00929833 9.14159
0.0356658 0.00955662 0
ZONE T="Ephi", I=38, J=2, DATAPACKING=POINT
0 0 0
0.00096394 0.000258287 0
0.00192788 0.000516574 0
0.00289182 0.000774861 0
0.00385576 0.00103315 0
0.0048197 0.00129143 0
0.00578364 0.00154972 0
0.00674758 0.00180801 0
0.00771152 0.0020663 0
0.00867546 0.00232458 0
0.0096394 0.00258287 0
0.0106033 0.00284116 0
0.0115673 0.00309944 0
0.0125312 0.00335773 0