TITLE="EPhi"
VARIABLES="x", "y", "EPhi"
ZONE T="Ephi", I=38, J=2, DATAPACKING=POINT
0 0 0
0.000997944 0 -2526.53
0.00199589 0 -12869.2
0.00299383 0 -20567.6
0.00399178 0 -24161.4
0.00498972 0 -22090.4
0.00598767 0 -13598
0.00698561 0 -509.288
0.00798355 0 12909.7
0.0089815 0 22770.1
0.00997944 0 27940.1
0.0109774 0 28943.8
0.0119753 0 25732.9
0.0129733 0 18165.6
0.0139712 0 8431.74
0.0149692 0 825.695
0.0159671 0 -2130.22
0.0169651 0 -2115.33
0.017963 0 -2097.8
0.0189609 0 -2379.11
0.0199589 0 -1691.64
0.0209568 0 -392.98
0.0219548 0 102.879
0.0229527 0 0
0.0239507 0 0
0.0249486 0 0
0.0259466 0 0
0.0269445 0 0
0.0279424 0 0
0.0289404 0 0
0.0299383 0 0
0.0309363 0 0
0.0319342 0 0
0.0329322 0 0
0.0339301 0 0
0.034928 0 0
0.035926 0 0
0.0369239 0 0
0 0 0
0.000997792 1.74165e-05 -2731.04
0.00199558 3.48331e-05 -13047.4
0.00299338 5.22496e-05 -20715
0.00399117 6.96661e-05 -24268.8
0.00498896 8.70826e-05 -22170.1
0.00598675 0.000104499 -13689.8
0.00698455 0.000121916 -657.402
0.00798234 0.000139332 12687.3
0.00898013 0.000156749 22491
0.00997792 0.000174165 27642.9
0.0109757 0.000191582 28664.5
0.0119735 0.000208998 25490.2
0.0129713 0.000226415 17964.8
0.0139691 0.000243831 8278.6
0.0149669 0.000261248 727.8
0.0159647 0.000278664 -2173.58
0.0169625 0.000296081 -2115.42
0.0179603 0.000313498 -2069.18
0.0189581 0.000330914 -2337.14
0.0199558 0.000348331 -1652.39
0.0209536 0.000365747 -367.562
0.0219514 0.000383164 111.867
0.0229492 0.00040058 0
0.023947 0.000417997 0
0.0249448 0.000435413 0
0.0259426 0.00045283 0
0.0269404 0.000470246 0
0.0279382 0.000487663 0
0.028936 0.000505079 0
0.0299338 0.000522496 0
0.0309316 0.000539912 0
0.0319294 0.000557329 0
0.0329271 0.000574745 0
0.0339249 0.000592162 0
0.0349227 0.000609579 0
0.0359205 0.000626995 0
0.0369183 0.000644412 0
ZONE T="Ephi", I=38, J=2, DATAPACKING=POINT
0 0 0
0.000997792 1.74165e-05 -2731.04
0.00199558 3.48331e-05 -13047.4
0.00299338 5.22496e-05 -20715
0.00399117 6.96661e-05 -24268.8
0.00498896 8.70826e-05 -22170.1
0.00598675 0.000104499 -13689.8
0.00698455 0.000121916 -657.402
0.00798234 0.000139332 12687.3
0.00898013 0.000156749 22491
0.00997792 0.000174165 27642.9
0.0109757 0.000191582 28664.5
0.0119735 0.000208998 25490.2
0.0129713 0.000226415 17964.8
0.0139691 0.000243831 8278.6
0.0149669 0.000261248 727.8
0.0159647 0.000278664 -2173.58
0.0169625 0.000296081 -2115.42
0.0179603 0.000313498 -2069.18
0.0189581 0.000330914 -2337.14
0.0199558 0.000348331 -1652.39
0.0209536 0.000365747 -367.562
0.0219514 0.000383164 111.867
0.0229492 0.00040058 0
0.023947 0.000417997 0
0.0249448 0.000435413 0
0.0259426 0.00045283 0
0.0269404 0.000470246 0
0.0279382 0.000487663 0
0.028936 0.000505079 0
0.0299338 0.000522496 0
0.0309316 0.000539912 0
0.0319294 0.000557329 0
0.0329271 0.000574745 0
0.0339249 0.000592162 0
0.0349227 0.000609579 0
0.0359205 0.000626995 0
0.0369183 0.000644412 0
0 0 0
0.000997336 3.48278e-05 -2935.56
0.00199467 6.96555e-05 -13225.7
0.00299201 0.000104483 -20862.4
0.00398935 0.000139311 -24376.2
0.00498668 0.000174139 -22249.8
0.00598402 0.000208967 -13781.7
0.00698135 0.000243794 -805.516
0.00797869 0.000278622 12464.9
0.00897603 0.00031345 22211.9
0.00997336 0.000348278 27345.8
0.0109707 0.000383105 28385.2
0.011968 0.000417933 25247.4
0.0129654 0.000452761 17764
0.0139627 0.000487589 8125.45
0.01496 0.000522416 629.905
0.0159574 0.000557244 -2216.94
0.0169547 0.000592072 -2115.52
0.0179521 0.0006269 -2040.56
0.0189494 0.000661727 -2295.16
0.0199467 0.000696555 -1613.14
0.0209441 0.000731383 -342.144
0.0219414 0.000766211 120.856
0.0229387 0.000801038 0
0.0239361 0.000835866 0
0.0249334 0.000870694 0
0.0259307 0.000905522 0
0.0269281 0.000940349 0
0.0279254 0.000975177 0
0.0289228 0.00101 0
0.0299201 0.00104483 0
0.0309174 0.00107966 0
0.0319148 0.00111449 0
0.0329121 0.00114932 0
0.0339094 0.00118414 0
0.0349068 0.00121897 0
0.0359041 0.0012538 0
0.0369014 0.00128863 0
ZONE T="Ephi", I=38, J=2, DATAPACKING=POINT
0 0 0
0.000997336 3.48278e-05 -2935.56
0.00199467 6.96555e-05 -13225.7
0.00299201 0.000104483 -20862.4
0.00398935 0.000139311 -24376.2
0.00498668 0.000174139 -22249.8
0.00598402 0.000208967 -13781.7
0.00698135 0.000243794 -805.516
0.00797869 0.000278622 12464.9
0.00897603 0.00031345 22211.9
0.00997336 0.000348278 27345.8
0.0109707 0.000383105 28385.2
0.011968 0.000417933 25247.4
0.0129654 0.000452761 17764
0.0139627 0.000487589 8125.45
0.01496 0.000522416 629.905
0.0159574 0.000557244 -2216.94
0.0169547 0.000592072 -2115.52
0.0179521 0.0006269 -2040.56
0.0189494 0.000661727 -2295.16
0.0199467 0.000696555 -1613.14
0.0209441 0.000731383 -342.144
0.0219414 0.000766211 120.856
0.0229387 0.000801038 0
0.0239361 0.000835866 0
0.0249334 0.000870694 0
0.0259307 0.000905522 0
0.0269281 0.000940349 0
0.0279254 0.000975177 0
0.0289228 0.00101 0
0.0299201 0.00104483 0
0.0309174 0.00107966 0
0.0319148 0.00111449 0
0.0329121 0.00114932 0
0.0339094 0.00118414 0
0.0349068 0.00121897 0
0.0359041 0.0012538 0
0.0369014 0.00128863 0
0 0 0
0.000996577 5.22284e-05 -3140.07
0.00199315 0.000104457 -13404
0.00298973 0.000156685 -21009.8
0.00398631 0.000208913 -24483.5
0.00498288 0.000261142 -22329.5
0.00597946 0.00031337 -13873.5
0.00697604 0.000365599 -953.63
0.00797261 0.000417827 12242.5
0.00896919 0.000470055 21932.8
0.00996577 0.000522284 27048.6
0.0109623 0.000574512 28106
0.0119589 0.00062674 25004.7
0.0129555 0.000678969 17563.3
0.0139521 0.000731197 7972.31
0.0149486 0.000783426 532.011
0.0159452 0.000835654 -2260.3
0.0169418 0.000887882 -2115.61
0.0179384 0.000940111 -2011.94
0.018935 0.000992339 -2253.19
0.0199315 0.00104457 -1573.9
0.0209281 0.0010968 -316.727
0.0219247 0.00114902 129.844
0.0229213 0.00120125 0
0.0239178 0.00125348 0
0.0249144 0.00130571 0
0.025911 0.00135794 0
0.0269076 0.00141017 0
0.0279041 0.00146239 0
0.0289007 0.00151462 0
0.0298973 0.00156685 0
0.0308939 0.00161908 0
0.0318905 0.00167131 0
0.032887 0.00172354 0
0.0338836 0.00177576 0
0.0348802 0.00182799 0
0.0358768 0.00188022 0
0.0368733 0.00193245 0
ZONE T="Ephi", I=38, J=2, DATAPACKING=POINT
0 0 0
0.000996577 5.22284e-05 -3140.07
0.00199315 0.000104457 -13404
0.00298973 0.000156685 -21009.8
0.00398631 0.000208913 -24483.5
0.00498288 0.000261142 -22329.5
0.00597946 0.00031337 -13873.5
0.00697604 0.000365599 -953.63
0.00797261 0.000417827 12242.5
0.00896919 0.000470055 21932.8
0.00996577 0.000522284 27048.6
0.0109623 0.000574512 28106
0.0119589 0.00062674 25004.7
0.0129555 0.000678969 17563.3
0.0139521 0.000731197 7972.31
0.0149486 0.000783426 532.011
0.0159452 0.000835654 -2260.3
0.0169418 0.000887882 -2115.61
0.0179384 0.000940111 -2011.94
0.018935 0.000992339 -2253.19
0.0199315 0.00104457 -1573.9
0.0209281 0.0010968 -316.727
0.0219247 0.00114902 129.844
0.0229213 0.00120125 0
0.0239178 0.00125348 0
0.0249144 0.00130571 0
0.025911 0.00135794 0
0.0269076 0.00141017 0
0.0279041 0.00146239 0
0.0289007 0.00151462 0
0.0298973 0.00156685 0
0.0308939 0.00161908 0
0.0318905 0.00167131 0
0.032887 0.00172354 0
0.0338836 0.00177576 0
0.0348802 0.00182799 0
0.0358768 0.00188022 0
0.0368733 0.00193245 0
0 0 0
0.000995513 6.96131e-05 -3344.59
0.00199103 0.000139226 -13582.2
0.00298654 0.000208839 -21157.2
0.00398205 0.000278452 -24590.9
0.00497757 0.000348065 -22409.2
0.00597308 0.000417678 -13965.4
0.00696859 0.000487292 -1101.74
0.00796411 0.000556905 12020
0.00895962 0.000626518 21653.6
0.00995513 0.000696131 26751.5
0.0109506 0.000765744 27826.7
0.0119462 0.000835357 24761.9
0.0129417 0.00090497 17362.5
0.0139372 0.000974583 7819.16
0.0149327 0.0010442 434.116
0.0159282 0.00111381 -2303.66
0.0169237 0.00118342 -2115.7
0.0179192 0.00125304 -1983.32
0.0189148 0.00132265 -2211.21
0.0199103 0.00139226 -1534.65
0.0209058 0.00146187 -291.309
0.0219013 0.00153149 138.833
0.0228968 0.0016011 0
0.0238923 0.00167071 0
0.0248878 0.00174033 0
0.0258833 0.00180994 0
0.0268789 0.00187955 0
0.0278744 0.00194917 0
0.0288699 0.00201878 0
0.0298654 0.00208839 0
0.0308609 0.00215801 0
0.0318564 0.00222762 0
0.0328519 0.00229723 0
0.0338475 0.00236684 0
0.034843 0.00243646 0
0.0358385 0.00250607 0
0.036834 0.00257568 0
ZONE T="Ephi", I=38, J=2, DATAPACKING=POINT
0 0 0
0.000995513 6.96131e-05 -3344.59
0.00199103 0.000139226 -13582.2
0.00298654 0.000208839 -21157.2
0.00398205 0.000278452 -24590.9
0.00497757 0.000348065 -22409.2
0.00597308 0.000417678 -13965.4
0.00696859 0.000487292 -1101.74
0.00796411 0.000556905 12020
0.00895962 0.000626518 21653.6
0.00995513 0.000696131 26751.5
0.0109506 0.000765744 27826.7
0.0119462 0.000835357 24761.9
0.0129417 0.00090497 17362.5
0.0139372 0.000974583 7819.16
0.0149327 0.0010442 434.116
0.0159282 0.00111381 -2303.66
0.0169237 0.00118342 -2115.7
0.0179192 0.00125304 -1983.32
0.0189148 0.00132265 -2211.21
0.0199103 0.00139226 -1534.65
0.0209058 0.00146187 -291.309
0.0219013 0.00153149 138.833
0.0228968 0.0016011 0
0.0238923 0.00167071 0
0.0248878 0.00174033 0
0.0258833 0.00180994 0
0.0268789 0.00187955 0
0.0278744 0.00194917 0
0.0288699 0.00201878 0
0.0298654 0.00208839 0
0.0308609 0.00215801 0
0.0318564 0.00222762 0
0.0328519 0.00229723 0
0.0338475 0.00236684 0
0.034843 0.00243646 0
0.0358385 0.00250607 0
0.036834 0.00257568 0
0 0 0
0.000994147 8.69766e-05 -3549.1
0.00198829 0.000173953 -13760.5
0.00298244 0.00026093 -21304.6
0.00397659 0.000347906 -24698.2
0.00497073 0.000434883 -22488.9
0.00596488 0.000521859 -14057.2
0.00695903 0.000608836 -1249.86
0.00795317 0.000695813 11797.6
0.00894732 0.000782789 21374.5
0.00994147 0.000869766 26454.3
0.0109356 0.000956742 27547.4
0.0119298 0.00104372 24519.2
0.0129239 0.0011307 17161.7
0.0139181 0.00121767 7666.02
0.0149122 0.00130465 336.222
0.0159063 0.00139163 -2347.02
0.0169005 0.0014786 -2115.79
0.0178946 0.00156558 -1954.7
0.0188888 0.00165255 -2169.24
0.0198829 0.00173953 -1495.4
0.0208771 0.00182651 -265.891
0.0218712 0.00191348 147.821
0.0228654 0.00200046 0
0.0238595 0.00208744 0
0.0248537 0.00217441 0
0.0258478 0.00226139 0
0.026842 0.00234837 0
0.0278361 0.00243534 0
0.0288303 0.00252232 0
0.0298244 0.0026093 0
0.0308186 0.00269627 0
0.0318127 0.00278325 0
0.0328068 0.00287023 0
0.033801 0.0029572 0
0.0347951 0.00304418 0
0.0357893 0.00313116 0
0.0367834 0.00321813 0
ZONE T="Ephi", I=38, J=2, DATAPACKING=POINT
0 0 0
0.000994147 8.69766e-05 -3549.1
0.00198829 0.000173953 -13760.5
0.00298244 0.00026093 -21304.6
0.00397659 0.000347906 -24698.2
0.00497073 0.000434883 -22488.9
0.00596488 0.000521859 -14057.2
0.00695903 0.000608836 -1249.86
0.00795317 0.000695813 11797.6
0.00894732 0.000782789 21374.5
0.00994147 0.000869766 26454.3
0.0109356 0.000956742 27547.4
0.0119298 0.00104372 24519.2
0.0129239 0.0011307 17161.7
0.0139181 0.00121767 7666.02
0.0149122 0.00130465 336.222
0.0159063 0.00139163 -2347.02
0.0169005 0.0014786 -2115.79
0.0178946 0.00156558 -1954.7
0.0188888 0.00165255 -2169.24
0.0198829 0.00173953 -1495.4
0.0208771 0.00182651 -265.891
0.0218712 0.00191348 147.821
0.0228654 0.00200046 0
0.0238595 0.00208744 0
0.0248537 0.00217441 0
0.0258478 0.00226139 0
0.026842 0.00234837 0
0.0278361 0.00243534 0
0.0288303 0.00252232 0
0.0298244 0.0026093 0
0.0308186 0.00269627 0
0.0318127 0.00278325 0
0.0328068 0.00287023 0
0.033801 0.0029572 0
0.0347951 0.00304418 0
0.0357893 0.00313116 0
0.0367834 0.00321813 0
0 0 0
0.000992477 0.000104314 -3753.61
0.00198495 0.000208627 -13938.7
0.00297743 0.000312941 -21452
0.00396991 0.000417254 -24805.6
0.00496239 0.000521568 -22568.5
0.00595486 0.000625881 -14149.1
0.00694734 0.000730195 -1397.97
0.00793982 0.000834509 11575.2
0.0089323 0.000938822 21095.4
0.00992477 0.00104314 26157.1
0.0109173 0.00114745 27268.1
0.0119097 0.00125176 24276.4
0.0129022 0.00135608 16960.9
0.0138947 0.00146039 7512.87
0.0148872 0.0015647 238.327
0.0158796 0.00166902 -2390.38
0.0168721 0.00177333 -2115.88
0.0178646 0.00187764 -1926.08
0.0188571 0.00198196 -2127.26
0.0198495 0.00208627 -1456.16
0.020842 0.00219059 -240.473
0.0218345 0.0022949 156.81
0.022827 0.00239921 0
0.0238195 0.00250353 0
0.0248119 0.00260784 0
0.0258044 0.00271215 0
0.0267969 0.00281647 0
0.0277894 0.00292078 0
0.0287818 0.00302509 0
0.0297743 0.00312941 0
0.0307668 0.00323372 0
0.0317593 0.00333803 0
0.0327518 0.00344235 0
0.0337442 0.00354666 0
0.0347367 0.00365098 0
0.0357292 0.00375529 0
0.0367217 0.0038596 0
ZONE T="Ephi", I=38, J=2, DATAPACKING=POINT
0 0 0
0.000992477 0.000104314 -3753.61
0.00198495 0.000208627 -13938.7
0.00297743 0.000312941 -21452
0.00396991 0.000417254 -24805.6
0.00496239 0.000521568 -22568.5
0.00595486 0.000625881 -14149.1
0.00694734 0.000730195 -1397.97
0.00793982 0.000834509 11575.2
0.0089323 0.000938822 21095.4
0.00992477 0.00104314 26157.1
0.0109173 0.00114745 27268.1
0.0119097 0.00125176 24276.4
0.0129022 0.00135608 16960.9
0.0138947 0.00146039 7512.87
0.0148872 0.0015647 238.327
0.0158796 0.00166902 -2390.38
0.0168721 0.00177333 -2115.88
0.0178646 0.00187764 -1926.08
0.0188571 0.00198196 -2127.26
0.0198495 0.00208627 -1456.16
0.020842 0.00219059 -240.473
0.0218345 0.0022949 156.81
0.022827 0.00239921 0
0.0238195 0.00250353 0
0.0248119 0.00260784 0
0.0258044 0.00271215 0
0.0267969 0.00281647 0
0.0277894 0.00292078 0
0.0287818 0.00302509 0
0.0297743 0.00312941 0
0.0307668 0.00323372 0
0.0317593 0.00333803 0
0.0327518 0.00344235 0
0.0337442 0.00354666 0
0.0347367 0.00365098 0
0.0357292 0.00375529 0
0.0367217 0.0038596 0
0 0 0
0.000990506 0.000121619 -3958.13
0.00198101 0.000243238 -14117
0.00297152 0.000364856 -21599.4
0.00396202 0.000486475 -24913
0.00495253 0.000608094 -22648.2
0.00594303 0.000729713 -14240.9
0.00693354 0.000851332 -1546.09
0.00792405 0.000972951 11352.7
0.00891455 0.00109457 20816.3
0.00990506 0.00121619 25860
0.0108956 0.00133781 26988.9
0.0118861 0.00145943 24033.7
0.0128766 0.00158104 16760.2
0.0138671 0.00170266 7359.73
0.0148576 0.00182428 140.432
0.0158481 0.0019459 -2433.74
0.0168386 0.00206752 -2115.97
0.0178291 0.00218914 -1897.45
0.0188196 0.00231076 -2085.28
0.0198101 0.00243238 -1416.91
0.0208006 0.002554 -215.055
0.0217911 0.00267561 165.798
0.0227816 0.00279723 0
0.0237721 0.00291885 0
0.0247626 0.00304047 0
0.0257531 0.00316209 0
0.0267437 0.00328371 0
0.0277342 0.00340533 0
0.0287247 0.00352695 0
0.0297152 0.00364856 0
0.0307057 0.00377018 0
0.0316962 0.0038918 0
0.0326867 0.00401342 0
0.0336772 0.00413504 0
0.0346677 0.00425666 0
0.0356582 0.00437828 0
0.0366487 0.0044999 0
ZONE T="Ephi", I=38, J=2, DATAPACKING=POINT
0 0 0
0.000990506 0.000121619 -3958.13
0.00198101 0.000243238 -14117
0.00297152 0.000364856 -21599.4
0.00396202 0.000486475 -24913
0.00495253 0.000608094 -22648.2
0.00594303 0.000729713 -14240.9
0.00693354 0.000851332 -1546.09
0.00792405 0.000972951 11352.7
0.00891455 0.00109457 20816.3
0.00990506 0.00121619 25860
0.0108956 0.00133781 26988.9
0.0118861 0.00145943 24033.7
0.0128766 0.00158104 16760.2
0.0138671 0.00170266 7359.73
0.0148576 0.00182428 140.432
0.0158481 0.0019459 -2433.74
0.0168386 0.00206752 -2115.97
0.0178291 0.00218914 -1897.45
0.0188196 0.00231076 -2085.28
0.0198101 0.00243238 -1416.91
0.0208006 0.002554 -215.055
0.0217911 0.00267561 165.798
0.0227816 0.00279723 0
0.0237721 0.00291885 0
0.0247626 0.00304047 0
0.0257531 0.00316209 0
0.0267437 0.00328371 0
0.0277342 0.00340533 0
0.0287247 0.00352695 0
0.0297152 0.00364856 0
0.0307057 0.00377018 0
0.0316962 0.0038918 0
0.0326867 0.00401342 0
0.0336772 0.00413504 0
0.0346677 0.00425666 0
0.0356582 0.00437828 0
0.0366487 0.0044999 0
0 0 0
0.000988232 0.000138887 -4162.64
0.00197646 0.000277774 -14295.3
0.0029647 0.000416661 -21746.8
0.00395293 0.000555548 -25020.3
0.00494116 0.000694435 -22727.9
0.00592939 0.000833322 -14332.8
0.00691763 0.000972209 -1694.2
0.00790586 0.0011111 11130.3
0.00889409 0.00124998 20537.1
0.00988232 0.00138887 25562.8
0.0108706 0.00152776 26709.6
0.0118588 0.00166664 23790.9
0.012847 0.00180553 16559.4
0.0138353 0.00194442 7206.58
0.0148235 0.00208331 42.5377
0.0158117 0.00222219 -2477.1
0.0168 0.00236108 -2116.06
0.0177882 0.00249997 -1868.83
0.0187764 0.00263885 -2043.31
0.0197646 0.00277774 -1377.66
0.0207529 0.00291663 -189.637
0.0217411 0.00305551 174.787
0.0227293 0.0031944 0
0.0237176 0.00333329 0
0.0247058 0.00347218 0
0.025694 0.00361106 0
0.0266823 0.00374995 0
0.0276705 0.00388884 0
0.0286587 0.00402772 0
0.029647 0.00416661 0
0.0306352 0.0043055 0
0.0316234 0.00444438 0
0.0326117 0.00458327 0
0.0335999 0.00472216 0
0.0345881 0.00486105 0
0.0355764 0.00499993 0
0.0365646 0.00513882 0
ZONE T="Ephi", I=38, J=2, DATAPACKING=POINT
0 0 0
0.000988232 0.000138887 -4162.64
0.00197646 0.000277774 -14295.3
0.0029647 0.000416661 -21746.8
0.00395293 0.000555548 -25020.3
0.00494116 0.000694435 -22727.9
0.00592939 0.000833322 -14332.8
0.00691763 0.000972209 -1694.2
0.00790586 0.0011111 11130.3
0.00889409 0.00124998 20537.1
0.00988232 0.00138887 25562.8
0.0108706 0.00152776 26709.6
0.0118588 0.00166664 23790.9
0.012847 0.00180553 16559.4
0.0138353 0.00194442 7206.58
0.0148235 0.00208331 42.5377
0.0158117 0.00222219 -2477.1
0.0168 0.00236108 -2116.06
0.0177882 0.00249997 -1868.83
0.0187764 0.00263885 -2043.31
0.0197646 0.00277774 -1377.66
0.0207529 0.00291663 -189.637
0.0217411 0.00305551 174.787
0.0227293 0.0031944 0
0.0237176 0.00333329 0
0.0247058 0.00347218 0
0.025694 0.00361106 0
0.0266823 0.00374995 0
0.0276705 0.00388884 0
0.0286587 0.00402772 0
0.029647 0.00416661 0
0.0306352 0.0043055 0
0.0316234 0.00444438 0
0.0326117 0.00458327 0
0.0335999 0.00472216 0
0.0345881 0.00486105 0
0.0355764 0.00499993 0
0.0365646 0.00513882 0
0 0 0
0.000985658 0.000156113 -4367.16
0.00197132 0.000312226 -14473.5
0.00295697 0.000468339 -21894.2
0.00394263 0.000624452 -25127.7
0.00492829 0.000780564 -22807.6
0.00591395 0.000936677 -14424.6
0.00689961 0.00109279 -1842.31
0.00788526 0.0012489 10907.9
0.00887092 0.00140502 20258
0.00985658 0.00156113 25265.6
0.0108422 0.00171724 26430.3
0.0118279 0.00187335 23548.2
0.0128136 0.00202947 16358.6
0.0137992 0.00218558 7053.44
0.0147849 0.00234169 -55.3569
0.0157705 0.00249781 -2520.46
0.0167562 0.00265392 -2116.15
0.0177418 0.00281003 -1840.21
0.0187275 0.00296614 -2001.33
0.0197132 0.00312226 -1338.41
0.0206988 0.00327837 -164.219
0.0216845 0.00343448 183.775
0.0226701 0.0035906 0
0.0236558 0.00374671 0
0.0246414 0.00390282 0
0.0256271 0.00405893 0
0.0266128 0.00421505 0
0.0275984 0.00437116 0
0.0285841 0.00452727 0
0.0295697 0.00468339 0
0.0305554 0.0048395 0
0.0315411 0.00499561 0
0.0325267 0.00515173 0
0.0335124 0.00530784 0
0.034498 0.00546395 0
0.0354837 0.00562006 0
0.0364693 0.00577618 0
ZONE T="Ephi", I=38, J=2, DATAPACKING=POINT
0 0 0
0.000985658 0.000156113 -4367.16
0.00197132 0.000312226 -14473.5
0.00295697 0.000468339 -21894.2
0.00394263 0.000624452 -25127.7
0.00492829 0.000780564 -22807.6
0.00591395 0.000936677 -14424.6
0.00689961 0.00109279 -1842.31
0.00788526 0.0012489 10907.9
0.00887092 0.00140502 20258
0.00985658 0.00156113 25265.6
0.0108422 0.00171724 26430.3
0.0118279 0.00187335 23548.2
0.0128136 0.00202947 16358.6
0.0137992 0.00218558 7053.44
0.0147849 0.00234169 -55.3569
0.0157705 0.00249781 -2520.46
0.0167562 0.00265392 -2116.15
0.0177418 0.00281003 -1840.21
0.0187275 0.00296614 -2001.33
0.0197132 0.00312226 -1338.41
0.0206988 0.00327837 -164.219
0.0216845 0.00343448 183.775
0.0226701 0.0035906 0
0.0236558 0.00374671 0
0.0246414 0.00390282 0
0.0256271 0.00405893 0
0.0266128 0.00421505 0
0.0275984 0.00437116 0
0.0285841 0.00452727 0
0.0295697 0.00468339 0
0.0305554 0.0048395 0
0.0315411 0.00499561 0
0.0325267 0.00515173 0
0.0335124 0.00530784 0
0.034498 0.00546395 0
0.0354837 0.00562006 0
0.0364693 0.00577618 0
0 0 0
0.000982783 0.000173291 -4571.67
0.00196557 0.000346582 -14651.8
0.00294835 0.000519874 -22041.6
0.00393113 0.000693165 -25235
0.00491392 0.000866456 -22887.3
0.0058967 0.00103975 -14516.5
0.00687948 0.00121304 -1990.43
0.00786227 0.00138633 10685.4
0.00884505 0.00155962 19978.9
0.00982783 0.00173291 24968.5
0.0108106 0.0019062 26151
0.0117934 0.00207949 23305.4
0.0127762 0.00225279 16157.8
0.013759 0.00242608 6900.29
0.0147417 0.00259937 -153.251
0.0157245 0.00277266 -2563.82
0.0167073 0.00294595 -2116.24
0.0176901 0.00311924 -1811.59
0.0186729 0.00329253 -1959.36
0.0196557 0.00346582 -1299.17
0.0206384 0.00363912 -138.801
0.0216212 0.00381241 192.764
0.022604 0.0039857 0
0.0235868 0.00415899 0
0.0245696 0.00433228 0
0.0255524 0.00450557 0
0.0265351 0.00467886 0
0.0275179 0.00485215 0
0.0285007 0.00502544 0
0.0294835 0.00519874 0
0.0304663 0.00537203 0
0.0314491 0.00554532 0
0.0324318 0.00571861 0
0.0334146 0.0058919 0
0.0343974 0.00606519 0
0.0353802 0.00623848 0
0.036363 0.00641177 0
ZONE T="Ephi", I=38, J=2, DATAPACKING=POINT
0 0 0
0.000982783 0.000173291 -4571.67
0.00196557 0.000346582 -14651.8
0.00294835 0.000519874 -22041.6
0.00393113 0.000693165 -25235
0.00491392 0.000866456 -22887.3
0.0058967 0.00103975 -14516.5
0.00687948 0.00121304 -1990.43
0.00786227 0.00138633 10685.4
0.00884505 0.00155962 19978.9
0.00982783 0.00173291 24968.5
0.0108106 0.0019062 26151
0.0117934 0.00207949 23305.4
0.0127762 0.00225279 16157.8
0.013759 0.00242608 6900.29
0.0147417 0.00259937 -153.251
0.0157245 0.00277266 -2563.82
0.0167073 0.00294595 -2116.24
0.0176901 0.00311924 -1811.59
0.0186729 0.00329253 -1959.36
0.0196557 0.00346582 -1299.17
0.0206384 0.00363912 -138.801
0.0216212 0.00381241 192.764
0.022604 0.0039857 0
0.0235868 0.00415899 0
0.0245696 0.00433228 0
0.0255524 0.00450557 0
0.0265351 0.00467886 0
0.0275179 0.00485215 0
0.0285007 0.00502544 0
0.0294835 0.00519874 0
0.0304663 0.00537203 0
0.0314491 0.00554532 0
0.0324318 0.00571861 0
0.0334146 0.0058919 0
0.0343974 0.00606519 0
0.0353802 0.00623848 0
0.036363 0.00641177 0
0 0 0
0.000979609 0.000190417 -4776.18
0.00195922 0.000380833 -14830
0.00293883 0.00057125 -22189
0.00391844 0.000761667 -25342.4
0.00489805 0.000952084 -22967
0.00587766 0.0011425 -14608.3
0.00685726 0.00133292 -2138.54
0.00783687 0.00152333 10463
0.00881648 0.00171375 19699.8
0.00979609 0.00190417 24671.3
0.0107757 0.00209458 25871.8
0.0117553 0.002285 23062.7
0.0127349 0.00247542 15957
0.0137145 0.00266583 6747.14
0.0146941 0.00285625 -251.146
0.0156737 0.00304667 -2607.18
0.0166534 0.00323708 -2116.33
0.017633 0.0034275 -1782.97
0.0186126 0.00361792 -1917.38
0.0195922 0.00380833 -1259.92
0.0205718 0.00399875 -113.384
0.0215514 0.00418917 201.752
0.022531 0.00437959 0
0.0235106 0.00457 0
0.0244902 0.00476042 0
0.0254698 0.00495084 0
0.0264494 0.00514125 0
0.0274291 0.00533167 0
0.0284087 0.00552209 0
0.0293883 0.0057125 0
0.0303679 0.00590292 0
0.0313475 0.00609334 0
0.0323271 0.00628375 0
0.0333067 0.00647417 0
0.0342863 0.00666459 0
0.0352659 0.006855 0
0.0362455 0.00704542 0
ZONE T="Ephi", I=38, J=2, DATAPACKING=POINT
0 0 0
0.000979609 0.000190417 -4776.18
0.00195922 0.000380833 -14830
0.00293883 0.00057125 -22189
0.00391844 0.000761667 -25342.4
0.00489805 0.000952084 -22967
0.00587766 0.0011425 -14608.3
0.00685726 0.00133292 -2138.54
0.00783687 0.00152333 10463
0.00881648 0.00171375 19699.8
0.00979609 0.00190417 24671.3
0.0107757 0.00209458 25871.8
0.0117553 0.002285 23062.7
0.0127349 0.00247542 15957
0.0137145 0.00266583 6747.14
0.0146941 0.00285625 -251.146
0.0156737 0.00304667 -2607.18
0.0166534 0.00323708 -2116.33
0.017633 0.0034275 -1782.97
0.0186126 0.00361792 -1917.38
0.0195922 0.00380833 -1259.92
0.0205718 0.00399875 -113.384
0.0215514 0.00418917 201.752
0.022531 0.00437959 0
0.0235106 0.00457 0
0.0244902 0.00476042 0
0.0254698 0.00495084 0
0.0264494 0.00514125 0
0.0274291 0.00533167 0
0.0284087 0.00552209 0
0.0293883 0.0057125 0
0.0303679 0.00590292 0
0.0313475 0.00609334 0
0.0323271 0.00628375 0
0.0333067 0.00647417 0
0.0342863 0.00666459 0
0.0352659 0.006855 0
0.0362455 0.00704542 0
0 0 0
0.000976137 0.000207484 -4980.7
0.00195227 0.000414969 -15008.3
0.00292841 0.000622453 -22336.4
0.00390455 0.000829937 -25449.7
0.00488068 0.00103742 -23046.6
0.00585682 0.00124491 -14700.2
0.00683296 0.00145239 -2286.66
0.00780909 0.00165987 10240.6
0.00878523 0.00186736 19420.6
0.00976137 0.00207484 24374.2
0.0107375 0.00228233 25592.5
0.0117136 0.00248981 22819.9
0.0126898 0.0026973 15756.3
0.0136659 0.00290478 6594
0.0146421 0.00311226 -349.041
0.0156182 0.00331975 -2650.54
0.0165943 0.00352723 -2116.42
0.0175705 0.00373472 -1754.35
0.0185466 0.0039422 -1875.41
0.0195227 0.00414969 -1220.67
0.0204989 0.00435717 -87.9658
0.021475 0.00456465 210.741
0.0224511 0.00477214 0
0.0234273 0.00497962 0
0.0244034 0.00518711 0
0.0253796 0.00539459 0
0.0263557 0.00560208 0
0.0273318 0.00580956 0
0.028308 0.00601704 0
0.0292841 0.00622453 0
0.0302602 0.00643201 0
0.0312364 0.0066395 0
0.0322125 0.00684698 0
0.0331887 0.00705447 0
0.0341648 0.00726195 0
0.0351409 0.00746943 0
0.0361171 0.00767692 0
ZONE T="Ephi", I=38, J=2, DATAPACKING=POINT
0 0 0
0.000976137 0.000207484 -4980.7
0.00195227 0.000414969 -15008.3
0.00292841 0.000622453 -22336.4
0.00390455 0.000829937 -25449.7
0.00488068 0.00103742 -23046.6
0.00585682 0.00124491 -14700.2
0.00683296 0.00145239 -2286.66
0.00780909 0.00165987 10240.6
0.00878523 0.00186736 19420.6
0.00976137 0.00207484 24374.2
0.0107375 0.00228233 25592.5
0.0117136 0.00248981 22819.9
0.0126898 0.0026973 15756.3
0.0136659 0.00290478 6594
0.0146421 0.00311226 -349.041
0.0156182 0.00331975 -2650.54
0.0165943 0.00352723 -2116.42
0.0175705 0.00373472 -1754.35
0.0185466 0.0039422 -1875.41
0.0195227 0.00414969 -1220.67
0.0204989 0.00435717 -87.9658
0.021475 0.00456465 210.741
0.0224511 0.00477214 0
0.0234273 0.00497962 0
0.0244034 0.00518711 0
0.0253796 0.00539459 0
0.0263557 0.00560208 0
0.0273318 0.00580956 0
0.028308 0.00601704 0
0.0292841 0.00622453 0
0.0302602 0.00643201 0
0.0312364 0.0066395 0
0.0322125 0.00684698 0
0.0331887 0.00705447 0
0.0341648 0.00726195 0
0.0351409 0.00746943 0
0.0361171 0.00767692 0
0 0 0
0.000972367 0.000224489 -5185.21
0.00194473 0.000448977 -15186.6
0.0029171 0.000673466 -22483.8
0.00388947 0.000897954 -25557.1
0.00486184 0.00112244 -23126.3
0.0058342 0.00134693 -14792
0.00680657 0.00157142 -2434.77
0.00777894 0.00179591 10018.2
0.0087513 0.0020204 19141.5
0.00972367 0.00224489 24077
0.010696 0.00246937 25313.2
0.0116684 0.00269386 22577.2
0.0126408 0.00291835 15555.5
0.0136131 0.00314284 6440.85
0.0145855 0.00336733 -446.935
0.0155579 0.00359182 -2693.9
0.0165302 0.00381631 -2116.51
0.0175026 0.0040408 -1725.73
0.018475 0.00426528 -1833.43
0.0194473 0.00448977 -1181.43
0.0204197 0.00471426 -62.5479
0.0213921 0.00493875 219.73
0.0223644 0.00516324 0
0.0233368 0.00538773 0
0.0243092 0.00561222 0
0.0252815 0.0058367 0
0.0262539 0.00606119 0
0.0272263 0.00628568 0
0.0281986 0.00651017 0
0.029171 0.00673466 0
0.0301434 0.00695915 0
0.0311157 0.00718364 0
0.0320881 0.00740812 0
0.0330605 0.00763261 0
0.0340328 0.0078571 0
0.0350052 0.00808159 0
0.0359776 0.00830608 0
ZONE T="Ephi", I=38, J=2, DATAPACKING=POINT
0 0 0
0.000972367 0.000224489 -5185.21
0.00194473 0.000448977 -15186.6
0.0029171 0.000673466 -22483.8
0.00388947 0.000897954 -25557.1
0.00486184 0.00112244 -23126.3
0.0058342 0.00134693 -14792
0.00680657 0.00157142 -2434.77
0.00777894 0.00179591 10018.2
0.0087513 0.0020204 19141.5
0.00972367 0.00224489 24077
0.010696 0.00246937 25313.2
0.0116684 0.00269386 22577.2
0.0126408 0.00291835 15555.5
0.0136131 0.00314284 6440.85
0.0145855 0.00336733 -446.935
0.0155579 0.00359182 -2693.9
0.0165302 0.00381631 -2116.51
0.0175026 0.0040408 -1725.73
0.018475 0.00426528 -1833.43
0.0194473 0.00448977 -1181.43
0.0204197 0.00471426 -62.5479
0.0213921 0.00493875 219.73
0.0223644 0.00516324 0
0.0233368 0.00538773 0
0.0243092 0.00561222 0
0.0252815 0.0058367 0
0.0262539 0.00606119 0
0.0272263 0.00628568 0
0.0281986 0.00651017 0
0.029171 0.00673466 0
0.0301434 0.00695915 0
0.0311157 0.00718364 0
0.0320881 0.00740812 0
0.0330605 0.00763261 0
0.0340328 0.0078571 0
0.0350052 0.00808159 0
0.0359776 0.00830608 0
0 0 0
0.000968301 0.000241425 -5389.73
0.0019366 0.000482849 -15364.8
0.0029049 0.000724274 -22631.2
0.0038732 0.000965698 -25664.5
0.00484151 0.00120712 -23206
0.00580981 0.00144855 -14883.9
0.00677811 0.00168997 -2582.89
0.00774641 0.0019314 9795.72
0.00871471 0.00217282 18862.4
0.00968301 0.00241425 23779.8
0.0106513 0.00265567 25033.9
0.0116196 0.00289709 22334.4
0.0125879 0.00313852 15354.7
0.0135562 0.00337994 6287.71
0.0145245 0.00362137 -544.83
0.0154928 0.00386279 -2737.26
0.0164611 0.00410422 -2116.6
0.0174294 0.00434564 -1697.1
0.0183977 0.00458707 -1791.45
0.019366 0.00482849 -1142.18
0.0203343 0.00506992 -37.1301
0.0213026 0.00531134 228.718
0.0222709 0.00555277 0
0.0232392 0.00579419 0
0.0242075 0.00603561 0
0.0251758 0.00627704 0
0.0261441 0.00651846 0
0.0271124 0.00675989 0
0.0280807 0.00700131 0
0.029049 0.00724274 0
0.0300173 0.00748416 0
0.0309856 0.00772559 0
0.0319539 0.00796701 0
0.0329222 0.00820844 0
0.0338905 0.00844986 0
0.0348588 0.00869128 0
0.0358271 0.00893271 0
ZONE T="Ephi", I=38, J=2, DATAPACKING=POINT
0 0 0
0.000968301 0.000241425 -5389.73
0.0019366 0.000482849 -15364.8
0.0029049 0.000724274 -22631.2
0.0038732 0.000965698 -25664.5
0.00484151 0.00120712 -23206
0.00580981 0.00144855 -14883.9
0.00677811 0.00168997 -2582.89
0.00774641 0.0019314 9795.72
0.00871471 0.00217282 18862.4
0.00968301 0.00241425 23779.8
0.0106513 0.00265567 25033.9
0.0116196 0.00289709 22334.4
0.0125879 0.00313852 15354.7
0.0135562 0.00337994 6287.71
0.0145245 0.00362137 -544.83
0.0154928 0.00386279 -2737.26
0.0164611 0.00410422 -2116.6
0.0174294 0.00434564 -1697.1
0.0183977 0.00458707 -1791.45
0.019366 0.00482849 -1142.18
0.0203343 0.00506992 -37.1301
0.0213026 0.00531134 228.718
0.0222709 0.00555277 0
0.0232392 0.00579419 0
0.0242075 0.00603561 0
0.0251758 0.00627704 0
0.0261441 0.00651846 0
0.0271124 0.00675989 0
0.0280807 0.00700131 0
0.029049 0.00724274 0
0.0300173 0.00748416 0
0.0309856 0.00772559 0
0.0319539 0.00796701 0
0.0329222 0.00820844 0
0.0338905 0.00844986 0
0.0348588 0.00869128 0
0.0358271 0.00893271 0
0 0 0
0.00096394 0.000258287 -5594.24
0.00192788 0.000516574 -15543.1
0.00289182 0.000774861 -22778.6
0.00385576 0.00103315 -25771.8
0.0048197 0.00129143 -23285.7
0.00578364 0.00154972 -14975.7
0.00674758 0.00180801 -2731
0.00771152 0.0020663 9573.29