TITLE="EPhi"
VARIABLES="z", "r", "EPhi"
ZONE T="Ephi", I=16, J=2, DATAPACKING=BLOCK
-0.00299626 -0.00299626 -0.00299626 -0.00299626 -0.00299626 -0.00299626 -0.00299626 -0.00299626 -0.00299626 -0.00299626 -0.00299626 -0.00299626 -0.00299626 -0.00299626 -0.00299626 -0.00299626 -0.000996258 -0.000996258 -0.000996258 -0.000996258 -0.000996258 -0.000996258 -0.000996258 -0.000996258 -0.000996258 -0.000996258 -0.000996258 -0.000996258 -0.000996258 -0.000996258 -0.000996258 -0.000996258 

-0.00196125 0 0.00196125 0.0039225 0.00588375 0.007845 0.00980625 0.0117675 0.0137288 0.01569 0.0176513 0.0196125 0.0215738 0.023535 0.0254963 0.0274575 -0.00196125 0 0.00196125 0.0039225 0.00588375 0.007845 0.00980625 0.0117675 0.0137288 0.01569 0.0176513 0.0196125 0.0215738 0.023535 0.0254963 0.0274575 

0 0 0 0 0 0 0 0 0 0 0 0 0 0 0 0 0 0 0 0 0 0 0 0 0 0 0 0 0 0 0 0 

ZONE T="Ephi", I=16, J=2, DATAPACKING=BLOCK
-0.000996258 -0.000996258 -0.000996258 -0.000996258 -0.000996258 -0.000996258 -0.000996258 -0.000996258 -0.000996258 -0.000996258 -0.000996258 -0.000996258 -0.000996258 -0.000996258 -0.000996258 -0.000996258 0.00100374 0.00100374 0.00100374 0.00100374 0.00100374 0.00100374 0.00100374 0.00100374 0.00100374 0.00100374 0.00100374 0.00100374 0.00100374 0.00100374 0.00100374 0.00100374 

-0.00196125 0 0.00196125 0.0039225 0.00588375 0.007845 0.00980625 0.0117675 0.0137288 0.01569 0.0176513 0.0196125 0.0215738 0.023535 0.0254963 0.0274575 -0.00196125 0 0.00196125 0.0039225 0.00588375 0.007845 0.00980625 0.0117675 0.0137288 0.01569 0.0176513 0.0196125 0.0215738 0.023535 0.0254963 0.0274575 

0 0 0 0 0 0 0 0 0 0 0 0 0 0 0 0 0 0 0 0 0 0 0 0 0 0 0 0 0 0 0 0 

ZONE T="Ephi", I=16, J=2, DATAPACKING=BLOCK
0.00100374 0.00100374 0.00100374 0.00100374 0.00100374 0.00100374 0.00100374 0.00100374 0.00100374 0.00100374 0.00100374 0.00100374 0.00100374 0.00100374 0.00100374 0.00100374 0.00300374 0.00300374 0.00300374 0.00300374 0.00300374 0.00300374 0.00300374 0.00300374 0.00300374 0.00300374 0.00300374 0.00300374 0.00300374 0.00300374 0.00300374 0.00300374 

-0.00196125 0 0.00196125 0.0039225 0.00588375 0.007845 0.00980625 0.0117675 0.0137288 0.01569 0.0176513 0.0196125 0.0215738 0.023535 0.0254963 0.0274575 -0.00196125 0 0.00196125 0.0039225 0.00588375 0.007845 0.00980625 0.0117675 0.0137288 0.01569 0.0176513 0.0196125 0.0215738 0.023535 0.0254963 0.0274575 

0 0 0 0 0 0 0 0 0 0 0 0 0 0 0 0 0 0 0 0 0 0 0 0 0 0 0 0 0 0 0 0 

ZONE T="Ephi", I=16, J=2, DATAPACKING=BLOCK
0.00300374 0.00300374 0.00300374 0.00300374 0.00300374 0.00300374 0.00300374 0.00300374 0.00300374 0.00300374 0.00300374 0.00300374 0.00300374 0.00300374 0.00300374 0.00300374 0.00500374 0.00500374 0.00500374 0.00500374 0.00500374 0.00500374 0.00500374 0.00500374 0.00500374 0.00500374 0.00500374 0.00500374 0.00500374 0.00500374 0.00500374 0.00500374 

-0.00196125 0 0.00196125 0.0039225 0.00588375 0.007845 0.00980625 0.0117675 0.0137288 0.01569 0.0176513 0.0196125 0.0215738 0.023535 0.0254963 0.0274575 -0.00196125 0 0.00196125 0.0039225 0.00588375 0.007845 0.00980625 0.0117675 0.0137288 0.01569 0.0176513 0.0196125 0.0215738 0.023535 0.0254963 0.0274575 

0 0 0 0 0 0 0 0 0 0 0 0 0 0 0 0 0 0 0 0 0 0 0 0 0 0 0 0 0 0 0 0 

ZONE T="Ephi", I=16, J=2, DATAPACKING=BLOCK
0.00500374 0.00500374 0.00500374 0.00500374 0.00500374 0.00500374 0.00500374 0.00500374 0.00500374 0.00500374 0.00500374 0.00500374 0.00500374 0.00500374 0.00500374 0.00500374 0.00700374 0.00700374 0.00700374 0.00700374 0.00700374 0.00700374 0.00700374 0.00700374 0.00700374 0.00700374 0.00700374 0.00700374 0.00700374 0.00700374 0.00700374 0.00700374 

-0.00196125 0 0.00196125 0.0039225 0.00588375 0.007845 0.00980625 0.0117675 0.0137288 0.01569 0.0176513 0.0196125 0.0215738 0.023535 0.0254963 0.0274575 -0.00196125 0 0.00196125 0.0039225 0.00588375 0.007845 0.00980625 0.0117675 0.0137288 0.01569 0.0176513 0.0196125 0.0215738 0.023535 0.0254963 0.0274575 

0 0 0 0 0 0 0 0 0 0 0 0 0 0 0 0 0 0 0 0 0 0 0 0 0 0 0 0 0 0 0 0 

ZONE T="Ephi", I=16, J=2, DATAPACKING=BLOCK
0.00700374 0.00700374 0.00700374 0.00700374 0.00700374 0.00700374 0.00700374 0.00700374 0.00700374 0.00700374 0.00700374 0.00700374 0.00700374 0.00700374 0.00700374 0.00700374 0.00900374 0.00900374 0.00900374 0.00900374 0.00900374 0.00900374 0.00900374 0.00900374 0.00900374 0.00900374 0.00900374 0.00900374 0.00900374 0.00900374 0.00900374 0.00900374 

-0.00196125 0 0.00196125 0.0039225 0.00588375 0.007845 0.00980625 0.0117675 0.0137288 0.01569 0.0176513 0.0196125 0.0215738 0.023535 0.0254963 0.0274575 -0.00196125 0 0.00196125 0.0039225 0.00588375 0.007845 0.00980625 0.0117675 0.0137288 0.01569 0.0176513 0.0196125 0.0215738 0.023535 0.0254963 0.0274575 

0 0 0 0 0 0 0 0 0 0 0 0 0 0 0 0 0 0 0 0 0 0 0 0 0 0 0 0 0 0 0 0 

ZONE T="Ephi", I=16, J=2, DATAPACKING=BLOCK
0.00900374 0.00900374 0.00900374 0.00900374 0.00900374 0.00900374 0.00900374 0.00900374 0.00900374 0.00900374 0.00900374 0.00900374 0.00900374 0.00900374 0.00900374 0.00900374 0.0110037 0.0110037 0.0110037 0.0110037 0.0110037 0.0110037 0.0110037 0.0110037 0.0110037 0.0110037 0.0110037 0.0110037 0.0110037 0.0110037 0.0110037 0.0110037 

-0.00196125 0 0.00196125 0.0039225 0.00588375 0.007845 0.00980625 0.0117675 0.0137288 0.01569 0.0176513 0.0196125 0.0215738 0.023535 0.0254963 0.0274575 -0.00196125 0 0.00196125 0.0039225 0.00588375 0.007845 0.00980625 0.0117675 0.0137288 0.01569 0.0176513 0.0196125 0.0215738 0.023535 0.0254963 0.0274575 

0 0 0 0 0 0 0 0 0 0 0 0 0 0 0 0 0 0 0 0 0 0 0 0 0 0 0 0 0 0 0 0 

ZONE T="Ephi", I=16, J=2, DATAPACKING=BLOCK
0.0110037 0.0110037 0.0110037 0.0110037 0.0110037 0.0110037 0.0110037 0.0110037 0.0110037 0.0110037 0.0110037 0.0110037 0.0110037 0.0110037 0.0110037 0.0110037 0.0130037 0.0130037 0.0130037 0.0130037 0.0130037 0.0130037 0.0130037 0.0130037 0.0130037 0.0130037 0.0130037 0.0130037 0.0130037 0.0130037 0.0130037 0.0130037 

-0.00196125 0 0.00196125 0.0039225 0.00588375 0.007845 0.00980625 0.0117675 0.0137288 0.01569 0.0176513 0.0196125 0.0215738 0.023535 0.0254963 0.0274575 -0.00196125 0 0.00196125 0.0039225 0.00588375 0.007845 0.00980625 0.0117675 0.0137288 0.01569 0.0176513 0.0196125 0.0215738 0.023535 0.0254963 0.0274575 

0 0 0 0 0 0 0 0 0 0 0 0 0 0 0 0 0 0 0 0 0 0 0 0 0 0 0 0 0 0 0 0 

ZONE T="Ephi", I=16, J=2, DATAPACKING=BLOCK
0.0130037 0.0130037 0.0130037 0.0130037 0.0130037 0.0130037 0.0130037 0.0130037 0.0130037 0.0130037 0.0130037 0.0130037 0.0130037 0.0130037 0.0130037 0.0130037 0.0150037 0.0150037 0.0150037 0.0150037 0.0150037 0.0150037 0.0150037 0.0150037 0.0150037 0.0150037 0.0150037 0.0150037 0.0150037 0.0150037 0.0150037 0.0150037 

-0.00196125 0 0.00196125 0.0039225 0.00588375 0.007845 0.00980625 0.0117675 0.0137288 0.01569 0.0176513 0.0196125 0.0215738 0.023535 0.0254963 0.0274575 -0.00196125 0 0.00196125 0.0039225 0.00588375 0.007845 0.00980625 0.0117675 0.0137288 0.01569 0.0176513 0.0196125 0.0215738 0.023535 0.0254963 0.0274575 

0 0 0 0 0 0 0 0 0 0 0 0 0 0 0 0 0 0 0 0 0 0 0 0 0 0 0 0 0 0 0 0 

ZONE T="Ephi", I=16, J=2, DATAPACKING=BLOCK
0.0150037 0.0150037 0.0150037 0.0150037 0.0150037 0.0150037 0.0150037 0.0150037 0.0150037 0.0150037 0.0150037 0.0150037 0.0150037 0.0150037 0.0150037 0.0150037 0.0170037 0.0170037 0.0170037 0.0170037 0.0170037 0.0170037 0.0170037 0.0170037 0.0170037 0.0170037 0.0170037 0.0170037 0.0170037 0.0170037 0.0170037 0.0170037 

-0.00196125 0 0.00196125 0.0039225 0.00588375 0.007845 0.00980625 0.0117675 0.0137288 0.01569 0.0176513 0.0196125 0.0215738 0.023535 0.0254963 0.0274575 -0.00196125 0 0.00196125 0.0039225 0.00588375 0.007845 0.00980625 0.0117675 0.0137288 0.01569 0.0176513 0.0196125 0.0215738 0.023535 0.0254963 0.0274575 

0 0 0 0 0 0 0 0 0 0 0 0 0 0 0 0 0 0 0 0 0 0 0 0 0 0 0 0 0 0 0 0 

ZONE T="Ephi", I=16, J=2, DATAPACKING=BLOCK
0.0170037 0.0170037 0.0170037 0.0170037 0.0170037 0.0170037 0.0170037 0.0170037 0.0170037 0.0170037 0.0170037 0.0170037 0.0170037 0.0170037 0.0170037 0.0170037 0.0190037 0.0190037 0.0190037 0.0190037 0.0190037 0.0190037 0.0190037 0.0190037 0.0190037 0.0190037 0.0190037 0.0190037 0.0190037 0.0190037 0.0190037 0.0190037 

-0.00196125 0 0.00196125 0.0039225 0.00588375 0.007845 0.00980625 0.0117675 0.0137288 0.01569 0.0176513 0.0196125 0.0215738 0.023535 0.0254963 0.0274575 -0.00196125 0 0.00196125 0.0039225 0.00588375 0.007845 0.00980625 0.0117675 0.0137288 0.01569 0.0176513 0.0196125 0.0215738 0.023535 0.0254963 0.0274575 

0 0 0 0 0 0 0 0 0 0 0 0 0 0 0 0 0 0 0 0 0 0 0 0 0 0 0 0 0 0 0 0 

ZONE T="Ephi", I=16, J=2, DATAPACKING=BLOCK
0.0190037 0.0190037 0.0190037 0.0190037 0.0190037 0.0190037 0.0190037 0.0190037 0.0190037 0.0190037 0.0190037 0.0190037 0.0190037 0.0190037 0.0190037 0.0190037 0.0210037 0.0210037 0.0210037 0.0210037 0.0210037 0.0210037 0.0210037 0.0210037 0.0210037 0.0210037 0.0210037 0.0210037 0.0210037 0.0210037 0.0210037 0.0210037 

-0.00196125 0 0.00196125 0.0039225 0.00588375 0.007845 0.00980625 0.0117675 0.0137288 0.01569 0.0176513 0.0196125 0.0215738 0.023535 0.0254963 0.0274575 -0.00196125 0 0.00196125 0.0039225 0.00588375 0.007845 0.00980625 0.0117675 0.0137288 0.01569 0.0176513 0.0196125 0.0215738 0.023535 0.0254963 0.0274575 

0 0 0 0 0 0 0 0 0 0 0 0 0 0 0 0 0 0 0 0 0 0 0 0 0 0 0 0 0 0 0 0 

ZONE T="Ephi", I=16, J=2, DATAPACKING=BLOCK
0.0210037 0.0210037 0.0210037 0.0210037 0.0210037 0.0210037 0.0210037 0.0210037 0.0210037 0.0210037 0.0210037 0.0210037 0.0210037 0.0210037 0.0210037 0.0210037 0.0230037 0.0230037 0.0230037 0.0230037 0.0230037 0.0230037 0.0230037 0.0230037 0.0230037 0.0230037 0.0230037 0.0230037 0.0230037 0.0230037 0.0230037 0.0230037 

-0.00196125 0 0.00196125 0.0039225 0.00588375 0.007845 0.00980625 0.0117675 0.0137288 0.01569 0.0176513 0.0196125 0.0215738 0.023535 0.0254963 0.0274575 -0.00196125 0 0.00196125 0.0039225 0.00588375 0.007845 0.00980625 0.0117675 0.0137288 0.01569 0.0176513 0.0196125 0.0215738 0.023535 0.0254963 0.0274575 

0 0 0 0 0 0 0 0 0 0 0 0 0 0 0 0 0 0 0 0 0 0 0 0 0 0 0 0 0 0 0 0 

ZONE T="Ephi", I=16, J=2, DATAPACKING=BLOCK
0.0230037 0.0230037 0.0230037 0.0230037 0.0230037 0.0230037 0.0230037 0.0230037 0.0230037 0.0230037 0.0230037 0.0230037 0.0230037 0.0230037 0.0230037 0.0230037 0.0250037 0.0250037 0.0250037 0.0250037 0.0250037 0.0250037 0.0250037 0.0250037 0.0250037 0.0250037 0.0250037 0.0250037 0.0250037 0.0250037 0.0250037 0.0250037 

-0.00196125 0 0.00196125 0.0039225 0.00588375 0.007845 0.00980625 0.0117675 0.0137288 0.01569 0.0176513 0.0196125 0.0215738 0.023535 0.0254963 0.0274575 -0.00196125 0 0.00196125 0.0039225 0.00588375 0.007845 0.00980625 0.0117675 0.0137288 0.01569 0.0176513 0.0196125 0.0215738 0.023535 0.0254963 0.0274575 

0 0 0 0 0 0 0 0 0 0 0 0 0 0 0 0 0 0 0 0 0 0 0 0 0 0 0 0 0 0 0 0 

ZONE T="Ephi", I=16, J=2, DATAPACKING=BLOCK
0.0250037 0.0250037 0.0250037 0.0250037 0.0250037 0.0250037 0.0250037 0.0250037 0.0250037 0.0250037 0.0250037 0.0250037 0.0250037 0.0250037 0.0250037 0.0250037 0.0270037 0.0270037 0.0270037 0.0270037 0.0270037 0.0270037 0.0270037 0.0270037 0.0270037 0.0270037 0.0270037 0.0270037 0.0270037 0.0270037 0.0270037 0.0270037 

-0.00196125 0 0.00196125 0.0039225 0.00588375 0.007845 0.00980625 0.0117675 0.0137288 0.01569 0.0176513 0.0196125 0.0215738 0.023535 0.0254963 0.0274575 -0.00196125 0 0.00196125 0.0039225 0.00588375 0.007845 0.00980625 0.0117675 0.0137288 0.01569 0.0176513 0.0196125 0.0215738 0.023535 0.0254963 0.0274575 

0 0 0 0 0 0 0 0 0 0 0 0 0 0 0 0 0 0 0 0 0 0 0 0 0 0 0 0 0 0 0 0 

ZONE T="Ephi", I=16, J=2, DATAPACKING=BLOCK
0.0270037 0.0270037 0.0270037 0.0270037 0.0270037 0.0270037 0.0270037 0.0270037 0.0270037 0.0270037 0.0270037 0.0270037 0.0270037 0.0270037 0.0270037 0.0270037 0.0290037 0.0290037 0.0290037 0.0290037 0.0290037 0.0290037 0.0290037 0.0290037 0.0290037 0.0290037 0.0290037 0.0290037 0.0290037 0.0290037 0.0290037 0.0290037 

-0.00196125 0 0.00196125 0.0039225 0.00588375 0.007845 0.00980625 0.0117675 0.0137288 0.01569 0.0176513 0.0196125 0.0215738 0.023535 0.0254963 0.0274575 -0.00196125 0 0.00196125 0.0039225 0.00588375 0.007845 0.00980625 0.0117675 0.0137288 0.01569 0.0176513 0.0196125 0.0215738 0.023535 0.0254963 0.0274575 

0 0 0 0 0 0 0 0 0 0 0 0 0 0 0 0 0 0 0 0 0 0 0 0 0 0 0 0 0 0 0 0 

ZONE T="Ephi", I=16, J=2, DATAPACKING=BLOCK
0.0290037 0.0290037 0.0290037 0.0290037 0.0290037 0.0290037 0.0290037 0.0290037 0.0290037 0.0290037 0.0290037 0.0290037 0.0290037 0.0290037 0.0290037 0.0290037 0.0310037 0.0310037 0.0310037 0.0310037 0.0310037 0.0310037 0.0310037 0.0310037 0.0310037 0.0310037 0.0310037 0.0310037 0.0310037 0.0310037 0.0310037 0.0310037 

-0.00196125 0 0.00196125 0.0039225 0.00588375 0.007845 0.00980625 0.0117675 0.0137288 0.01569 0.0176513 0.0196125 0.0215738 0.023535 0.0254963 0.0274575 -0.00196125 0 0.00196125 0.0039225 0.00588375 0.007845 0.00980625 0.0117675 0.0137288 0.01569 0.0176513 0.0196125 0.0215738 0.023535 0.0254963 0.0274575 

0 0 0 0 0 0 0 0 0 0 0 0 0 0 0 0 0 0 0 0 0 0 0 0 0 0 0 0 0 0 0 0 

ZONE T="Ephi", I=16, J=2, DATAPACKING=BLOCK
0.0310037 0.0310037 0.0310037 0.0310037 0.0310037 0.0310037 0.0310037 0.0310037 0.0310037 0.0310037 0.0310037 0.0310037 0.0310037 0.0310037 0.0310037 0.0310037 0.0330037 0.0330037 0.0330037 0.0330037 0.0330037 0.0330037 0.0330037 0.0330037 0.0330037 0.0330037 0.0330037 0.0330037 0.0330037 0.0330037 0.0330037 0.0330037 

-0.00196125 0 0.00196125 0.0039225 0.00588375 0.007845 0.00980625 0.0117675 0.0137288 0.01569 0.0176513 0.0196125 0.0215738 0.023535 0.0254963 0.0274575 -0.00196125 0 0.00196125 0.0039225 0.00588375 0.007845 0.00980625 0.0117675 0.0137288 0.01569 0.0176513 0.0196125 0.0215738 0.023535 0.0254963 0.0274575 

0 0 0 0 0 0 0 0 0 0 0 0 0 0 0 0 0 0 0 0 0 0 0 0 0 0 0 0 0 0 0 0 

ZONE T="Ephi", I=16, J=2, DATAPACKING=BLOCK
0.0330037 0.0330037 0.0330037 0.0330037 0.0330037 0.0330037 0.0330037 0.0330037 0.0330037 0.0330037 0.0330037 0.0330037 0.0330037 0.0330037 0.0330037 0.0330037 0.0350037 0.0350037 0.0350037 0.0350037 0.0350037 0.0350037 0.0350037 0.0350037 0.0350037 0.0350037 0.0350037 0.0350037 0.0350037 0.0350037 0.0350037 0.0350037 

-0.00196125 0 0.00196125 0.0039225 0.00588375 0.007845 0.00980625 0.0117675 0.0137288 0.01569 0.0176513 0.0196125 0.0215738 0.023535 0.0254963 0.0274575 -0.00196125 0 0.00196125 0.0039225 0.00588375 0.007845 0.00980625 0.0117675 0.0137288 0.01569 0.0176513 0.0196125 0.0215738 0.023535 0.0254963 0.0274575 

0 0 0 0 0 0 0 0 0 0 0 0 0 0 0 0 0 0 0 0 0 0 0 0 0 0 0 0 0 0 0 0 

ZONE T="Ephi", I=16, J=2, DATAPACKING=BLOCK
0.0350037 0.0350037 0.0350037 0.0350037 0.0350037 0.0350037 0.0350037 0.0350037 0.0350037 0.0350037 0.0350037 0.0350037 0.0350037 0.0350037 0.0350037 0.0350037 0.0370037 0.0370037 0.0370037 0.0370037 0.0370037 0.0370037 0.0370037 0.0370037 0.0370037 0.0370037 0.0370037 0.0370037 0.0370037 0.0370037 0.0370037 0.0370037 

-0.00196125 0 0.00196125 0.0039225 0.00588375 0.007845 0.00980625 0.0117675 0.0137288 0.01569 0.0176513 0.0196125 0.0215738 0.023535 0.0254963 0.0274575 -0.00196125 0 0.00196125 0.0039225 0.00588375 0.007845 0.00980625 0.0117675 0.0137288 0.01569 0.0176513 0.0196125 0.0215738 0.023535 0.0254963 0.0274575 

0 0 0 0 0 0 0 0 0 0 0 0 0 0 0 0 0 0 0 0 0 0 0 0 0 0 0 0 0 0 0 0 

ZONE T="Ephi", I=16, J=2, DATAPACKING=BLOCK
0.0370037 0.0370037 0.0370037 0.0370037 0.0370037 0.0370037 0.0370037 0.0370037 0.0370037 0.0370037 0.0370037 0.0370037 0.0370037 0.0370037 0.0370037 0.0370037 0.0390037 0.0390037 0.0390037 0.0390037 0.0390037 0.0390037 0.0390037 0.0390037 0.0390037 0.0390037 0.0390037 0.0390037 0.0390037 0.0390037 0.0390037 0.0390037 

-0.00196125 0 0.00196125 0.0039225 0.00588375 0.007845 0.00980625 0.0117675 0.0137288 0.01569 0.0176513 0.0196125 0.0215738 0.023535 0.0254963 0.0274575 -0.00196125 0 0.00196125 0.0039225 0.00588375 0.007845 0.00980625 0.0117675 0.0137288 0.01569 0.0176513 0.0196125 0.0215738 0.023535 0.0254963 0.0274575 

0 0 0 0 0 0 0 0 0 0 0 0 0 0 0 0 0 0 0 0 0 0 0 0 0 0 0 0 0 0 0 0 

ZONE T="Ephi", I=16, J=2, DATAPACKING=BLOCK
0.0390037 0.0390037 0.0390037 0.0390037 0.0390037 0.0390037 0.0390037 0.0390037 0.0390037 0.0390037 0.0390037 0.0390037 0.0390037 0.0390037 0.0390037 0.0390037 0.0410037 0.0410037 0.0410037 0.0410037 0.0410037 0.0410037 0.0410037 0.0410037 0.0410037 0.0410037 0.0410037 0.0410037 0.0410037 0.0410037 0.0410037 0.0410037 

-0.00196125 0 0.00196125 0.0039225 0.00588375 0.007845 0.00980625 0.0117675 0.0137288 0.01569 0.0176513 0.0196125 0.0215738 0.023535 0.0254963 0.0274575 -0.00196125 0 0.00196125 0.0039225 0.00588375 0.007845 0.00980625 0.0117675 0.0137288 0.01569 0.0176513 0.0196125 0.0215738 0.023535 0.0254963 0.0274575 

0 0 0 0 0 0 0 0 0 0 0 0 0 0 0 0 0 0 0 0 0 0 0 0 0 0 0 0 0 0 0 0 

ZONE T="Ephi", I=16, J=2, DATAPACKING=BLOCK
0.0410037 0.0410037 0.0410037 0.0410037 0.0410037 0.0410037 0.0410037 0.0410037 0.0410037 0.0410037 0.0410037 0.0410037 0.0410037 0.0410037 0.0410037 0.0410037 0.0430037 0.0430037 0.0430037 0.0430037 0.0430037 0.0430037 0.0430037 0.0430037 0.0430037 0.0430037 0.0430037 0.0430037 0.0430037 0.0430037 0.0430037 0.0430037 

-0.00196125 0 0.00196125 0.0039225 0.00588375 0.007845 0.00980625 0.0117675 0.0137288 0.01569 0.0176513 0.0196125 0.0215738 0.023535 0.0254963 0.0274575 -0.00196125 0 0.00196125 0.0039225 0.00588375 0.007845 0.00980625 0.0117675 0.0137288 0.01569 0.0176513 0.0196125 0.0215738 0.023535 0.0254963 0.0274575 

0 0 0 0 0 0 0 0 0 0 0 0 0 0 0 0 0 0 0 0 0 0 0 0 0 0 0 0 0 0 0 0 

ZONE T="Ephi", I=16, J=2, DATAPACKING=BLOCK
0.0430037 0.0430037 0.0430037 0.0430037 0.0430037 0.0430037 0.0430037 0.0430037 0.0430037 0.0430037 0.0430037 0.0430037 0.0430037 0.0430037 0.0430037 0.0430037 0.0450037 0.0450037 0.0450037 0.0450037 0.0450037 0.0450037 0.0450037 0.0450037 0.0450037 0.0450037 0.0450037 0.0450037 0.0450037 0.0450037 0.0450037 0.0450037 

-0.00196125 0 0.00196125 0.0039225 0.00588375 0.007845 0.00980625 0.0117675 0.0137288 0.01569 0.0176513 0.0196125 0.0215738 0.023535 0.0254963 0.0274575 -0.00196125 0 0.00196125 0.0039225 0.00588375 0.007845 0.00980625 0.0117675 0.0137288 0.01569 0.0176513 0.0196125 0.0215738 0.023535 0.0254963 0.0274575 

0 0 0 0 0 0 0 0 0 0 0 0 0 0 0 0 0 0 0 0 0 0 0 0 0 0 0 0 0 0 0 0 

ZONE T="Ephi", I=16, J=2, DATAPACKING=BLOCK
0.0450037 0.0450037 0.0450037 0.0450037 0.0450037 0.0450037 0.0450037 0.0450037 0.0450037 0.0450037 0.0450037 0.0450037 0.0450037 0.0450037 0.0450037 0.0450037 0.0470037 0.0470037 0.0470037 0.0470037 0.0470037 0.0470037 0.0470037 0.0470037 0.0470037 0.0470037 0.0470037 0.0470037 0.0470037 0.0470037 0.0470037 0.0470037 

-0.00196125 0 0.00196125 0.0039225 0.00588375 0.007845 0.00980625 0.0117675 0.0137288 0.01569 0.0176513 0.0196125 0.0215738 0.023535 0.0254963 0.0274575 -0.00196125 0 0.00196125 0.0039225 0.00588375 0.007845 0.00980625 0.0117675 0.0137288 0.01569 0.0176513 0.0196125 0.0215738 0.023535 0.0254963 0.0274575 

0 0 0 0 0 0 0 0 0 0 0 0 0 0 0 0 0 0 0 0 0 0 0 0 0 0 0 0 0 0 0 0 

ZONE T="Ephi", I=16, J=2, DATAPACKING=BLOCK
0.0470037 0.0470037 0.0470037 0.0470037 0.0470037 0.0470037 0.0470037 0.0470037 0.0470037 0.0470037 0.0470037 0.0470037 0.0470037 0.0470037 0.0470037 0.0470037 0.0490037 0.0490037 0.0490037 0.0490037 0.0490037 0.0490037 0.0490037 0.0490037 0.0490037 0.0490037 0.0490037 0.0490037 0.0490037 0.0490037 0.0490037 0.0490037 

-0.00196125 0 0.00196125 0.0039225 0.00588375 0.007845 0.00980625 0.0117675 0.0137288 0.01569 0.0176513 0.0196125 0.0215738 0.023535 0.0254963 0.0274575 -0.00196125 0 0.00196125 0.0039225 0.00588375 0.007845 0.00980625 0.0117675 0.0137288 0.01569 0.0176513 0.0196125 0.0215738 0.023535 0.0254963 0.0274575 

0 0 0 0 0 0 0 0 0 0 0 0 0 0 0 0 0 0 0 0 0 0 0 0 0 0 0 0 0 0 0 0 

ZONE T="Ephi", I=16, J=2, DATAPACKING=BLOCK
0.0490037 0.0490037 0.0490037 0.0490037 0.0490037 0.0490037 0.0490037 0.0490037 0.0490037 0.0490037 0.0490037 0.0490037 0.0490037 0.0490037 0.0490037 0.0490037 0.0510037 0.0510037 0.0510037 0.0510037 0.0510037 0.0510037 0.0510037 0.0510037 0.0510037 0.0510037 0.0510037 0.0510037 0.0510037 0.0510037 0.0510037 0.0510037 

-0.00196125 0 0.00196125 0.0039225 0.00588375 0.007845 0.00980625 0.0117675 0.0137288 0.01569 0.0176513 0.0196125 0.0215738 0.023535 0.0254963 0.0274575 -0.00196125 0 0.00196125 0.0039225 0.00588375 0.007845 0.00980625 0.0117675 0.0137288 0.01569 0.0176513 0.0196125 0.0215738 0.023535 0.0254963 0.0274575 

0 0 0 0 0 0 0 0 0 0 0 0 0 0 0 0 0 0 0 0 0 0 0 0 0 0 0 0 0 0 0 0 

ZONE T="Ephi", I=16, J=2, DATAPACKING=BLOCK
0.0510037 0.0510037 0.0510037 0.0510037 0.0510037 0.0510037 0.0510037 0.0510037 0.0510037 0.0510037 0.0510037 0.0510037 0.0510037 0.0510037 0.0510037 0.0510037 0.0530037 0.0530037 0.0530037 0.0530037 0.0530037 0.0530037 0.0530037 0.0530037 0.0530037 0.0530037 0.0530037 0.0530037 0.0530037 0.0530037 0.0530037 0.0530037 

-0.00196125 0 0.00196125 0.0039225 0.00588375 0.007845 0.00980625 0.0117675 0.0137288 0.01569 0.0176513 0.0196125 0.0215738 0.023535 0.0254963 0.0274575 -0.00196125 0 0.00196125 0.0039225 0.00588375 0.007845 0.00980625 0.0117675 0.0137288 0.01569 0.0176513 0.0196125 0.0215738 0.023535 0.0254963 0.0274575 

0 0 0 0 0 0 0 0 0 0 0 0 0 0 0 0 0 0 0 0 0 0 0 0 0 0 0 0 0 0 0 0 

ZONE T="Ephi", I=16, J=2, DATAPACKING=BLOCK
0.0530037 0.0530037 0.0530037 0.0530037 0.0530037 0.0530037 0.0530037 0.0530037 0.0530037 0.0530037 0.0530037 0.0530037 0.0530037 0.0530037 0.0530037 0.0530037 0.0550037 0.0550037 0.0550037 0.0550037 0.0550037 0.0550037 0.0550037 0.0550037 0.0550037 0.0550037 0.0550037 0.0550037 0.0550037 0.0550037 0.0550037 0.0550037 

-0.00196125 0 0.00196125 0.0039225 0.00588375 0.007845 0.00980625 0.0117675 0.0137288 0.01569 0.0176513 0.0196125 0.0215738 0.023535 0.0254963 0.0274575 -0.00196125 0 0.00196125 0.0039225 0.00588375 0.007845 0.00980625 0.0117675 0.0137288 0.01569 0.0176513 0.0196125 0.0215738 0.023535 0.0254963 0.0274575 

0 0 0 0 0 0 0 0 0 0 0 0 0 0 0 0 0 0 0 0 0 0 0 0 0 0 0 0 0 0 0 0 

ZONE T="Ephi", I=16, J=2, DATAPACKING=BLOCK
0.0550037 0.0550037 0.0550037 0.0550037 0.0550037 0.0550037 0.0550037 0.0550037 0.0550037 0.0550037 0.0550037 0.0550037 0.0550037 0.0550037 0.0550037 0.0550037 0.0570037 0.0570037 0.0570037 0.0570037 0.0570037 0.0570037 0.0570037 0.0570037 0.0570037 0.0570037 0.0570037 0.0570037 0.0570037 0.0570037 0.0570037 0.0570037 

-0.00196125 0 0.00196125 0.0039225 0.00588375 0.007845 0.00980625 0.0117675 0.0137288 0.01569 0.0176513 0.0196125 0.0215738 0.023535 0.0254963 0.0274575 -0.00196125 0 0.00196125 0.0039225 0.00588375 0.007845 0.00980625 0.0117675 0.0137288 0.01569 0.0176513 0.0196125 0.0215738 0.023535 0.0254963 0.0274575 

0 0 0 0 0 0 0 0 0 0 0 0 0 0 0 0 0 0 0 0 0 0 0 0 0 0 0 0 0 0 0 0 

ZONE T="Ephi", I=16, J=2, DATAPACKING=BLOCK
0.0570037 0.0570037 0.0570037 0.0570037 0.0570037 0.0570037 0.0570037 0.0570037 0.0570037 0.0570037 0.0570037 0.0570037 0.0570037 0.0570037 0.0570037 0.0570037 0.0590037 0.0590037 0.0590037 0.0590037 0.0590037 0.0590037 0.0590037 0.0590037 0.0590037 0.0590037 0.0590037 0.0590037 0.0590037 0.0590037 0.0590037 0.0590037 

-0.00196125 0 0.00196125 0.0039225 0.00588375 0.007845 0.00980625 0.0117675 0.0137288 0.01569 0.0176513 0.0196125 0.0215738 0.023535 0.0254963 0.0274575 -0.00196125 0 0.00196125 0.0039225 0.00588375 0.007845 0.00980625 0.0117675 0.0137288 0.01569 0.0176513 0.0196125 0.0215738 0.023535 0.0254963 0.0274575 

0 0 0 0 0 0 0 0 0 0 0 0 0 0 0 0 0 0 0 0 0 0 0 0 0 0 0 0 0 0 0 0 

ZONE T="Ephi", I=16, J=2, DATAPACKING=BLOCK
0.0590037 0.0590037 0.0590037 0.0590037 0.0590037 0.0590037 0.0590037 0.0590037 0.0590037 0.0590037 0.0590037 0.0590037 0.0590037 0.0590037 0.0590037 0.0590037 0.0610037 0.0610037 0.0610037 0.0610037 0.0610037 0.0610037 0.0610037 0.0610037 0.0610037 0.0610037 0.0610037 0.0610037 0.0610037 0.0610037 0.0610037 0.0610037 

-0.00196125 0 0.00196125 0.0039225 0.00588375 0.007845 0.00980625 0.0117675 0.0137288 0.01569 0.0176513 0.0196125 0.0215738 0.023535 0.0254963 0.0274575 -0.00196125 0 0.00196125 0.0039225 0.00588375 0.007845 0.00980625 0.0117675 0.0137288 0.01569 0.0176513 0.0196125 0.0215738 0.023535 0.0254963 0.0274575 

0 0 0 0 0 0 0 0 0 0 0 0 0 0 0 0 0 0 0 0 0 0 0 0 0 0 0 0 0 0 0 0 

ZONE T="Ephi", I=16, J=2, DATAPACKING=BLOCK
0.0610037 0.0610037 0.0610037 0.0610037 0.0610037 0.0610037 0.0610037 0.0610037 0.0610037 0.0610037 0.0610037 0.0610037 0.0610037 0.0610037 0.0610037 0.0610037 0.0630037 0.0630037 0.0630037 0.0630037 0.0630037 0.0630037 0.0630037 0.0630037 0.0630037 0.0630037 0.0630037 0.0630037 0.0630037 0.0630037 0.0630037 0.0630037 

-0.00196125 0 0.00196125 0.0039225 0.00588375 0.007845 0.00980625 0.0117675 0.0137288 0.01569 0.0176513 0.0196125 0.0215738 0.023535 0.0254963 0.0274575 -0.00196125 0 0.00196125 0.0039225 0.00588375 0.007845 0.00980625 0.0117675 0.0137288 0.01569 0.0176513 0.0196125 0.0215738 0.023535 0.0254963 0.0274575 

0 0 0 0 0 0 0 0 0 0 0 0 0 0 0 0 0 0 0 0 0 0 0 0 0 0 0 0 0 0 0 0 

ZONE T="Ephi", I=16, J=2, DATAPACKING=BLOCK
0.0630037 0.0630037 0.0630037 0.0630037 0.0630037 0.0630037 0.0630037 0.0630037 0.0630037 0.0630037 0.0630037 0.0630037 0.0630037 0.0630037 0.0630037 0.0630037 0.0650037 0.0650037 0.0650037 0.0650037 0.0650037 0.0650037 0.0650037 0.0650037 0.0650037 0.0650037 0.0650037 0.0650037 0.0650037 0.0650037 0.0650037 0.0650037 

-0.00196125 0 0.00196125 0.0039225 0.00588375 0.007845 0.00980625 0.0117675 0.0137288 0.01569 0.0176513 0.0196125 0.0215738 0.023535 0.0254963 0.0274575 -0.00196125 0 0.00196125 0.0039225 0.00588375 0.007845 0.00980625 0.0117675 0.0137288 0.01569 0.0176513 0.0196125 0.0215738 0.023535 0.0254963 0.0274575 

0 0 0 0 0 0 0 0 0 0 0 0 0 0 0 0 0 0 0 0 0 0 0 0 0 0 0 0 0 0 0 0 

ZONE T="Ephi", I=16, J=2, DATAPACKING=BLOCK
0.0650037 0.0650037 0.0650037 0.0650037 0.0650037 0.0650037 0.0650037 0.0650037 0.0650037 0.0650037 0.0650037 0.0650037 0.0650037 0.0650037 0.0650037 0.0650037 0.0670037 0.0670037 0.0670037 0.0670037 0.0670037 0.0670037 0.0670037 0.0670037 0.0670037 0.0670037 0.0670037 0.0670037 0.0670037 0.0670037 0.0670037 0.0670037 

-0.00196125 0 0.00196125 0.0039225 0.00588375 0.007845 0.00980625 0.0117675 0.0137288 0.01569 0.0176513 0.0196125 0.0215738 0.023535 0.0254963 0.0274575 -0.00196125 0 0.00196125 0.0039225 0.00588375 0.007845 0.00980625 0.0117675 0.0137288 0.01569 0.0176513 0.0196125 0.0215738 0.023535 0.0254963 0.0274575 

0 0 0 0 0 0 0 0 0 0 0 0 0 0 0 0 0 0 0 0 0 0 0 0 0 0 0 0 0 0 0 0 

ZONE T="Ephi", I=16, J=2, DATAPACKING=BLOCK
0.0670037 0.0670037 0.0670037 0.0670037 0.0670037 0.0670037 0.0670037 0.0670037 0.0670037 0.0670037 0.0670037 0.0670037 0.0670037 0.0670037 0.0670037 0.0670037 0.0690037 0.0690037 0.0690037 0.0690037 0.0690037 0.0690037 0.0690037 0.0690037 0.0690037 0.0690037 0.0690037 0.0690037 0.0690037 0.0690037 0.0690037 0.0690037 

-0.00196125 0 0.00196125 0.0039225 0.00588375 0.007845 0.00980625 0.0117675 0.0137288 0.01569 0.0176513 0.0196125 0.0215738 0.023535 0.0254963 0.0274575 -0.00196125 0 0.00196125 0.0039225 0.00588375 0.007845 0.00980625 0.0117675 0.0137288 0.01569 0.0176513 0.0196125 0.0215738 0.023535 0.0254963 0.0274575 

0 0 0 0 0 0 0 0 0 0 0 0 0 0 0 0 0 0 0 0 0 0 0 0 0 0 0 0 0 0 0 0 

ZONE T="Ephi", I=16, J=2, DATAPACKING=BLOCK
0.0690037 0.0690037 0.0690037 0.0690037 0.0690037 0.0690037 0.0690037 0.0690037 0.0690037 0.0690037 0.0690037 0.0690037 0.0690037 0.0690037 0.0690037 0.0690037 0.0710037 0.0710037 0.0710037 0.0710037 0.0710037 0.0710037 0.0710037 0.0710037 0.0710037 0.0710037 0.0710037 0.0710037 0.0710037 0.0710037 0.0710037 0.0710037 

-0.00196125 0 0.00196125 0.0039225 0.00588375 0.007845 0.00980625 0.0117675 0.0137288 0.01569 0.0176513 0.0196125 0.0215738 0.023535 0.0254963 0.0274575 -0.00196125 0 0.00196125 0.0039225 0.00588375 0.007845 0.00980625 0.0117675 0.0137288 0.01569 0.0176513 0.0196125 0.0215738 0.023535 0.0254963 0.0274575 

0 0 0 0 0 0 0 0 0 0 0 0 0 0 0 0 0 0 0 0 0 0 0 0 0 0 0 0 0 0 0 0 

ZONE T="Ephi", I=16, J=2, DATAPACKING=BLOCK
0.0710037 0.0710037 0.0710037 0.0710037 0.0710037 0.0710037 0.0710037 0.0710037 0.0710037 0.0710037 0.0710037 0.0710037 0.0710037 0.0710037 0.0710037 0.0710037 0.0730037 0.0730037 0.0730037 0.0730037 0.0730037 0.0730037 0.0730037 0.0730037 0.0730037 0.0730037 0.0730037 0.0730037 0.0730037 0.0730037 0.0730037 0.0730037 

-0.00196125 0 0.00196125 0.0039225 0.00588375 0.007845 0.00980625 0.0117675 0.0137288 0.01569 0.0176513 0.0196125 0.0215738 0.023535 0.0254963 0.0274575 -0.00196125 0 0.00196125 0.0039225 0.00588375 0.007845 0.00980625 0.0117675 0.0137288 0.01569 0.0176513 0.0196125 0.0215738 0.023535 0.0254963 0.0274575 

0 0 0 0 0 0 0 0 0 0 0 0 0 0 0 0 0 0 0 0 0 0 0 0 0 0 0 0 0 0 0 0 

ZONE T="Ephi", I=16, J=2, DATAPACKING=BLOCK
0.0730037 0.0730037 0.0730037 0.0730037 0.0730037 0.0730037 0.0730037 0.0730037 0.0730037 0.0730037 0.0730037 0.0730037 0.0730037 0.0730037 0.0730037 0.0730037 0.0750037 0.0750037 0.0750037 0.0750037 0.0750037 0.0750037 0.0750037 0.0750037 0.0750037 0.0750037 0.0750037 0.0750037 0.0750037 0.0750037 0.0750037 0.0750037 

-0.00196125 0 0.00196125 0.0039225 0.00588375 0.007845 0.00980625 0.0117675 0.0137288 0.01569 0.0176513 0.0196125 0.0215738 0.023535 0.0254963 0.0274575 -0.00196125 0 0.00196125 0.0039225 0.00588375 0.007845 0.00980625 0.0117675 0.0137288 0.01569 0.0176513 0.0196125 0.0215738 0.023535 0.0254963 0.0274575 

0 0 0 0 0 0 0 0 0 0 0 0 0 0 0 0 0 0 0 0 0 0 0 0 0 0 0 0 0 0 0 0 

ZONE T="Ephi", I=16, J=2, DATAPACKING=BLOCK
0.0750037 0.0750037 0.0750037 0.0750037 0.0750037 0.0750037 0.0750037 0.0750037 0.0750037 0.0750037 0.0750037 0.0750037 0.0750037 0.0750037 0.0750037 0.0750037 0.0770037 0.0770037 0.0770037 0.0770037 0.0770037 0.0770037 0.0770037 0.0770037 0.0770037 0.0770037 0.0770037 0.0770037 0.0770037 0.0770037 0.0770037 0.0770037 

-0.00196125 0 0.00196125 0.0039225 0.00588375 0.007845 0.00980625 0.0117675 0.0137288 0.01569 0.0176513 0.0196125 0.0215738 0.023535 0.0254963 0.0274575 -0.00196125 0 0.00196125 0.0039225 0.00588375 0.007845 0.00980625 0.0117675 0.0137288 0.01569 0.0176513 0.0196125 0.0215738 0.023535 0.0254963 0.0274575 

0 0 0 0 0 0 0 0 0 0 0 0 0 0 0 0 0 0 0 0 0 0 0 0 0 0 0 0 0 0 0 0 

ZONE T="Ephi", I=16, J=2, DATAPACKING=BLOCK