TITLE="EPhi"
VARIABLES="x", "y", "EPhi"
ZONE T="Ephi", I=14, J=2, DATAPACKING=POINT
0 0 0
0.00196125 0 -1831.46
0.0039225 0 -1542.34
0.00588375 0 -1388.26
0.007845 0 -1261.57
0.00980625 0 -1105.56
0.0117675 0 -899.284
0.0137288 0 -670.326
0.01569 0 -465.17
0.0176513 0 -306.492
0.0196125 0 -192.864
0.0215738 0 -110.438
0.023535 0 -39.3621
0.0254963 0 0
0 0 0
0.00196095 3.42285e-05 -1796.14
0.0039219 6.84571e-05 -1507.3
0.00588286 0.000102686 -1352.03
0.00784381 0.000136914 -1225.24
0.00980476 0.000171143 -1071.54
0.0117657 0.000205371 -870.26
0.0137267 0.0002396 -648.207
0.0156876 0.000273828 -450.573
0.0176486 0.000308057 -298.788
0.0196095 0.000342285 -190.258
0.0215705 0.000376514 -110.427
0.0235314 0.000410743 -39.7997
0.0254924 0.000444971 0
ZONE T="Ephi", I=14, J=2, DATAPACKING=POINT
0 0 0
0.00196095 3.42285e-05 -1796.14
0.0039219 6.84571e-05 -1507.3
0.00588286 0.000102686 -1352.03
0.00784381 0.000136914 -1225.24
0.00980476 0.000171143 -1071.54
0.0117657 0.000205371 -870.26
0.0137267 0.0002396 -648.207
0.0156876 0.000273828 -450.573
0.0176486 0.000308057 -298.788
0.0196095 0.000342285 -190.258
0.0215705 0.000376514 -110.427
0.0235314 0.000410743 -39.7997
0.0254924 0.000444971 0
0 0 0
0.00196006 6.84467e-05 -1760.83
0.00392011 0.000136893 -1472.26
0.00588017 0.00020534 -1315.8
0.00784022 0.000273787 -1188.91
0.00980028 0.000342233 -1037.52
0.0117603 0.00041068 -841.237
0.0137204 0.000479127 -626.087
0.0156804 0.000547573 -435.976
0.0176405 0.00061602 -291.084
0.0196006 0.000684467 -187.652
0.0215606 0.000752913 -110.416
0.0235207 0.00082136 -40.2373
0.0254807 0.000889807 0
ZONE T="Ephi", I=14, J=2, DATAPACKING=POINT
0 0 0
0.00196006 6.84467e-05 -1760.83
0.00392011 0.000136893 -1472.26
0.00588017 0.00020534 -1315.8
0.00784022 0.000273787 -1188.91
0.00980028 0.000342233 -1037.52
0.0117603 0.00041068 -841.237
0.0137204 0.000479127 -626.087
0.0156804 0.000547573 -435.976
0.0176405 0.00061602 -291.084
0.0196006 0.000684467 -187.652
0.0215606 0.000752913 -110.416
0.0235207 0.00082136 -40.2373
0.0254807 0.000889807 0
0 0 0
0.00195856 0.000102644 -1725.51
0.00391713 0.000205288 -1437.22
0.00587569 0.000307932 -1279.57
0.00783425 0.000410576 -1152.58
0.00979281 0.00051322 -1003.5
0.0117514 0.000615864 -812.213
0.0137099 0.000718507 -603.967
0.0156685 0.000821151 -421.38
0.0176271 0.000923795 -283.38
0.0195856 0.00102644 -185.046
0.0215442 0.00112908 -110.404
0.0235028 0.00123173 -40.675
0.0254613 0.00133437 0
ZONE T="Ephi", I=14, J=2, DATAPACKING=POINT
0 0 0
0.00195856 0.000102644 -1725.51
0.00391713 0.000205288 -1437.22
0.00587569 0.000307932 -1279.57
0.00783425 0.000410576 -1152.58
0.00979281 0.00051322 -1003.5
0.0117514 0.000615864 -812.213
0.0137099 0.000718507 -603.967
0.0156685 0.000821151 -421.38
0.0176271 0.000923795 -283.38
0.0195856 0.00102644 -185.046
0.0215442 0.00112908 -110.404
0.0235028 0.00123173 -40.675
0.0254613 0.00133437 0
0 0 0
0.00195647 0.00013681 -1690.2
0.00391295 0.00027362 -1402.18
0.00586942 0.00041043 -1243.34
0.00782589 0.00054724 -1116.25
0.00978237 0.00068405 -969.482
0.0117388 0.00082086 -783.19
0.0136953 0.000957669 -581.847
0.0156518 0.00109448 -406.783
0.0176083 0.00123129 -275.676
0.0195647 0.0013681 -182.44
0.0215212 0.00150491 -110.393
0.0234777 0.00164172 -41.1126
0.0254342 0.00177853 0
ZONE T="Ephi", I=14, J=2, DATAPACKING=POINT
0 0 0
0.00195647 0.00013681 -1690.2
0.00391295 0.00027362 -1402.18
0.00586942 0.00041043 -1243.34
0.00782589 0.00054724 -1116.25
0.00978237 0.00068405 -969.482
0.0117388 0.00082086 -783.19
0.0136953 0.000957669 -581.847
0.0156518 0.00109448 -406.783
0.0176083 0.00123129 -275.676
0.0195647 0.0013681 -182.44
0.0215212 0.00150491 -110.393
0.0234777 0.00164172 -41.1126
0.0254342 0.00177853 0
0 0 0
0.00195379 0.000170934 -1654.89
0.00390757 0.000341869 -1367.14
0.00586136 0.000512803 -1207.11
0.00781515 0.000683737 -1079.92
0.00976894 0.000854671 -935.464
0.0117227 0.00102561 -754.167
0.0136765 0.00119654 -559.727
0.0156303 0.00136747 -392.186
0.0175841 0.00153841 -267.972
0.0195379 0.00170934 -179.834
0.0214917 0.00188028 -110.381
0.0234454 0.00205121 -41.5502
0.0253992 0.00222215 0
ZONE T="Ephi", I=14, J=2, DATAPACKING=POINT
0 0 0
0.00195379 0.000170934 -1654.89
0.00390757 0.000341869 -1367.14
0.00586136 0.000512803 -1207.11
0.00781515 0.000683737 -1079.92
0.00976894 0.000854671 -935.464
0.0117227 0.00102561 -754.167
0.0136765 0.00119654 -559.727
0.0156303 0.00136747 -392.186
0.0175841 0.00153841 -267.972
0.0195379 0.00170934 -179.834
0.0214917 0.00188028 -110.381
0.0234454 0.00205121 -41.5502
0.0253992 0.00222215 0
0 0 0
0.00195051 0.000205007 -1619.57
0.00390101 0.000410013 -1332.1
0.00585152 0.00061502 -1170.88
0.00780203 0.000820026 -1043.59
0.00975253 0.00102503 -901.446
0.011703 0.00123004 -725.143
0.0136535 0.00143505 -537.607
0.0156041 0.00164005 -377.589
0.0175546 0.00184506 -260.269
0.0195051 0.00205007 -177.229
0.0214556 0.00225507 -110.37
0.0234061 0.00246008 -41.9879
0.0253566 0.00266508 0
ZONE T="Ephi", I=14, J=2, DATAPACKING=POINT
0 0 0
0.00195051 0.000205007 -1619.57
0.00390101 0.000410013 -1332.1
0.00585152 0.00061502 -1170.88
0.00780203 0.000820026 -1043.59
0.00975253 0.00102503 -901.446
0.011703 0.00123004 -725.143
0.0136535 0.00143505 -537.607
0.0156041 0.00164005 -377.589
0.0175546 0.00184506 -260.269
0.0195051 0.00205007 -177.229
0.0214556 0.00225507 -110.37
0.0234061 0.00246008 -41.9879
0.0253566 0.00266508 0
0 0 0
0.00194663 0.000239016 -1584.26
0.00389326 0.000478033 -1297.06
0.0058399 0.000717049 -1134.64
0.00778653 0.000956065 -1007.26
0.00973316 0.00119508 -867.428
0.0116798 0.0014341 -696.12
0.0136264 0.00167311 -515.487
0.0155731 0.00191213 -362.993
0.0175197 0.00215115 -252.565
0.0194663 0.00239016 -174.623
0.0214129 0.00262918 -110.358
0.0233596 0.0028682 -42.4255
0.0253062 0.00310721 0
ZONE T="Ephi", I=14, J=2, DATAPACKING=POINT
0 0 0
0.00194663 0.000239016 -1584.26
0.00389326 0.000478033 -1297.06
0.0058399 0.000717049 -1134.64
0.00778653 0.000956065 -1007.26
0.00973316 0.00119508 -867.428
0.0116798 0.0014341 -696.12
0.0136264 0.00167311 -515.487
0.0155731 0.00191213 -362.993
0.0175197 0.00215115 -252.565
0.0194663 0.00239016 -174.623
0.0214129 0.00262918 -110.358
0.0233596 0.0028682 -42.4255
0.0253062 0.00310721 0
0 0 0
0.00194216 0.000272953 -1548.94
0.00388433 0.000545907 -1262.02
0.00582649 0.00081886 -1098.41
0.00776866 0.00109181 -970.934
0.00971082 0.00136477 -833.409
0.011653 0.00163772 -667.096
0.0135951 0.00191067 -493.368
0.0155373 0.00218363 -348.396
0.0174795 0.00245658 -244.861
0.0194216 0.00272953 -172.017
0.0213638 0.00300249 -110.347
0.023306 0.00327544 -42.8631
0.0252481 0.00354839 0
ZONE T="Ephi", I=14, J=2, DATAPACKING=POINT
0 0 0
0.00194216 0.000272953 -1548.94
0.00388433 0.000545907 -1262.02
0.00582649 0.00081886 -1098.41
0.00776866 0.00109181 -970.934
0.00971082 0.00136477 -833.409
0.011653 0.00163772 -667.096
0.0135951 0.00191067 -493.368
0.0155373 0.00218363 -348.396
0.0174795 0.00245658 -244.861
0.0194216 0.00272953 -172.017
0.0213638 0.00300249 -110.347
0.023306 0.00327544 -42.8631
0.0252481 0.00354839 0
0 0 0
0.0019371 0.000306807 -1513.63
0.00387421 0.000613614 -1226.98
0.00581131 0.000920422 -1062.18
0.00774842 0.00122723 -934.605
0.00968552 0.00153404 -799.391
0.0116226 0.00184084 -638.073
0.0135597 0.00214765 -471.248
0.0154968 0.00245446 -333.799
0.0174339 0.00276126 -237.157
0.019371 0.00306807 -169.411
0.0213081 0.00337488 -110.336
0.0232453 0.00368169 -43.3008
0.0251824 0.00398849 0
ZONE T="Ephi", I=14, J=2, DATAPACKING=POINT
0 0 0
0.0019371 0.000306807 -1513.63
0.00387421 0.000613614 -1226.98
0.00581131 0.000920422 -1062.18
0.00774842 0.00122723 -934.605
0.00968552 0.00153404 -799.391
0.0116226 0.00184084 -638.073
0.0135597 0.00214765 -471.248
0.0154968 0.00245446 -333.799
0.0174339 0.00276126 -237.157
0.019371 0.00306807 -169.411
0.0213081 0.00337488 -110.336
0.0232453 0.00368169 -43.3008
0.0251824 0.00398849 0
0 0 0
0.00193145 0.000340568 -1478.32
0.00386291 0.000681135 -1191.94
0.00579436 0.0010217 -1025.95
0.00772582 0.00136227 -898.276
0.00965727 0.00170284 -765.373
0.0115887 0.00204341 -609.049
0.0135202 0.00238397 -449.128
0.0154516 0.00272454 -319.203
0.0173831 0.00306511 -229.453
0.0193145 0.00340568 -166.805
0.021246 0.00374624 -110.324
0.0231775 0.00408681 -43.7384
0.0251089 0.00442738 0
ZONE T="Ephi", I=14, J=2, DATAPACKING=POINT
0 0 0
0.00193145 0.000340568 -1478.32
0.00386291 0.000681135 -1191.94
0.00579436 0.0010217 -1025.95
0.00772582 0.00136227 -898.276
0.00965727 0.00170284 -765.373
0.0115887 0.00204341 -609.049
0.0135202 0.00238397 -449.128
0.0154516 0.00272454 -319.203
0.0173831 0.00306511 -229.453
0.0193145 0.00340568 -166.805
0.021246 0.00374624 -110.324
0.0231775 0.00408681 -43.7384
0.0251089 0.00442738 0
0 0 0
0.00192522 0.000374224 -1443
0.00385043 0.000748449 -1156.9
0.00577565 0.00112267 -989.721
0.00770087 0.0014969 -861.946
0.00962608 0.00187112 -731.355
0.0115513 0.00224535 -580.026
0.0134765 0.00261957 -427.008
0.0154017 0.00299379 -304.606
0.017327 0.00336802 -221.749
0.0192522 0.00374224 -164.199
0.0211774 0.00411647 -110.313
0.0231026 0.00449069 -44.176
0.0250278 0.00486492 0
ZONE T="Ephi", I=14, J=2, DATAPACKING=POINT
0 0 0
0.00192522 0.000374224 -1443
0.00385043 0.000748449 -1156.9
0.00577565 0.00112267 -989.721
0.00770087 0.0014969 -861.946
0.00962608 0.00187112 -731.355
0.0115513 0.00224535 -580.026
0.0134765 0.00261957 -427.008
0.0154017 0.00299379 -304.606
0.017327 0.00336802 -221.749
0.0192522 0.00374224 -164.199
0.0211774 0.00411647 -110.313
0.0231026 0.00449069 -44.176
0.0250278 0.00486492 0
0 0 0
0.00191839 0.000407767 -1407.69
0.00383679 0.000815534 -1121.86
0.00575518 0.0012233 -953.49
0.00767357 0.00163107 -825.617
0.00959196 0.00203883 -697.336
0.0115104 0.0024466 -551.003
0.0134287 0.00285437 -404.888
0.0153471 0.00326214 -290.009
0.0172655 0.0036699 -214.045
0.0191839 0.00407767 -161.593
0.0211023 0.00448544 -110.301
0.0230207 0.0048932 -44.6137
0.0249391 0.00530097 0
ZONE T="Ephi", I=14, J=2, DATAPACKING=POINT
0 0 0
0.00191839 0.000407767 -1407.69
0.00383679 0.000815534 -1121.86
0.00575518 0.0012233 -953.49
0.00767357 0.00163107 -825.617
0.00959196 0.00203883 -697.336
0.0115104 0.0024466 -551.003
0.0134287 0.00285437 -404.888
0.0153471 0.00326214 -290.009
0.0172655 0.0036699 -214.045
0.0191839 0.00407767 -161.593
0.0211023 0.00448544 -110.301
0.0230207 0.0048932 -44.6137
0.0249391 0.00530097 0
0 0 0
0.00191098 0.000441185 -1372.37
0.00382197 0.000882371 -1086.82
0.00573295 0.00132356 -917.259
0.00764394 0.00176474 -789.288
0.00955492 0.00220593 -663.318
0.0114659 0.00264711 -521.979
0.0133769 0.0030883 -382.768
0.0152879 0.00352948 -275.412
0.0171989 0.00397067 -206.341
0.0191098 0.00441185 -158.987
0.0210208 0.00485304 -110.29
0.0229318 0.00529422 -45.0513
0.0248428 0.00573541 0
ZONE T="Ephi", I=14, J=2, DATAPACKING=POINT
0 0 0
0.00191098 0.000441185 -1372.37
0.00382197 0.000882371 -1086.82
0.00573295 0.00132356 -917.259
0.00764394 0.00176474 -789.288
0.00955492 0.00220593 -663.318
0.0114659 0.00264711 -521.979
0.0133769 0.0030883 -382.768
0.0152879 0.00352948 -275.412
0.0171989 0.00397067 -206.341
0.0191098 0.00441185 -158.987
0.0210208 0.00485304 -110.29
0.0229318 0.00529422 -45.0513
0.0248428 0.00573541 0
0 0 0
0.00190299 0.000474469 -1337.06
0.00380599 0.000948939 -1051.79
0.00570898 0.00142341 -881.028
0.00761197 0.00189788 -752.959
0.00951497 0.00237235 -629.3
0.011418 0.00284682 -492.956
0.013321 0.00332129 -360.648
0.0152239 0.00379576 -260.816
0.0171269 0.00427023 -198.637
0.0190299 0.00474469 -156.382
0.0209329 0.00521916 -110.278
0.0228359 0.00569363 -45.4889
0.0247389 0.0061681 0
ZONE T="Ephi", I=14, J=2, DATAPACKING=POINT
0 0 0
0.00190299 0.000474469 -1337.06
0.00380599 0.000948939 -1051.79
0.00570898 0.00142341 -881.028
0.00761197 0.00189788 -752.959
0.00951497 0.00237235 -629.3
0.011418 0.00284682 -492.956
0.013321 0.00332129 -360.648
0.0152239 0.00379576 -260.816
0.0171269 0.00427023 -198.637
0.0190299 0.00474469 -156.382
0.0209329 0.00521916 -110.278
0.0228359 0.00569363 -45.4889
0.0247389 0.0061681 0
0 0 0
0.00189442 0.000507609 -1301.74
0.00378885 0.00101522 -1016.75
0.00568327 0.00152283 -844.797
0.00757769 0.00203044 -716.629
0.00947211 0.00253805 -595.282
0.0113665 0.00304565 -463.932
0.013261 0.00355326 -338.529
0.0151554 0.00406087 -246.219
0.0170498 0.00456848 -190.933
0.0189442 0.00507609 -153.776
0.0208386 0.0055837 -110.267
0.0227331 0.00609131 -45.9266
0.0246275 0.00659892 0
ZONE T="Ephi", I=14, J=2, DATAPACKING=POINT
0 0 0
0.00189442 0.000507609 -1301.74
0.00378885 0.00101522 -1016.75
0.00568327 0.00152283 -844.797
0.00757769 0.00203044 -716.629
0.00947211 0.00253805 -595.282
0.0113665 0.00304565 -463.932
0.013261 0.00355326 -338.529
0.0151554 0.00406087 -246.219
0.0170498 0.00456848 -190.933
0.0189442 0.00507609 -153.776
0.0208386 0.0055837 -110.267
0.0227331 0.00609131 -45.9266
0.0246275 0.00659892 0
0 0 0
0.00188528 0.000540594 -1266.43
0.00377055 0.00108119 -981.706
0.00565583 0.00162178 -808.566
0.0075411 0.00216238 -680.3
0.00942638 0.00270297 -561.263
0.0113117 0.00324356 -434.909
0.0131969 0.00378416 -316.409
0.0150822 0.00432475 -231.622
0.0169675 0.00486535 -183.229
0.0188528 0.00540594 -151.17
0.020738 0.00594653 -110.256
0.0226233 0.00648713 -46.3642
0.0245086 0.00702772 0
ZONE T="Ephi", I=14, J=2, DATAPACKING=POINT
0 0 0
0.00188528 0.000540594 -1266.43
0.00377055 0.00108119 -981.706
0.00565583 0.00162178 -808.566
0.0075411 0.00216238 -680.3
0.00942638 0.00270297 -561.263
0.0113117 0.00324356 -434.909
0.0131969 0.00378416 -316.409
0.0150822 0.00432475 -231.622
0.0169675 0.00486535 -183.229
0.0188528 0.00540594 -151.17
0.020738 0.00594653 -110.256
0.0226233 0.00648713 -46.3642
0.0245086 0.00702772 0
0 0 0
0.00187555 0.000573414 -1231.12
0.00375111 0.00114683 -946.667
0.00562666 0.00172024 -772.335
0.00750221 0.00229366 -643.971
0.00937777 0.00286707 -527.245
0.0112533 0.00344049 -405.886
0.0131289 0.0040139 -294.289
0.0150044 0.00458731 -217.026
0.01688 0.00516073 -175.526
0.0187555 0.00573414 -148.564
0.0206311 0.00630756 -110.244
0.0225066 0.00688097 -46.8018
0.0243822 0.00745438 0
ZONE T="Ephi", I=14, J=2, DATAPACKING=POINT
0 0 0
0.00187555 0.000573414 -1231.12
0.00375111 0.00114683 -946.667
0.00562666 0.00172024 -772.335
0.00750221 0.00229366 -643.971
0.00937777 0.00286707 -527.245
0.0112533 0.00344049 -405.886
0.0131289 0.0040139 -294.289
0.0150044 0.00458731 -217.026
0.01688 0.00516073 -175.526
0.0187555 0.00573414 -148.564
0.0206311 0.00630756 -110.244
0.0225066 0.00688097 -46.8018
0.0243822 0.00745438 0
0 0 0
0.00186526 0.00060606 -1195.8
0.00373052 0.00121212 -911.627
0.00559578 0.00181818 -736.104
0.00746104 0.00242424 -607.642
0.0093263 0.0030303 -493.227
0.0111916 0.00363636 -376.862
0.0130568 0.00424242 -272.169
0.0149221 0.00484848 -202.429
0.0167873 0.00545454 -167.822
0.0186526 0.0060606 -145.958
0.0205179 0.00666666 -110.233
0.0223831 0.00727272 -47.2394
0.0242484 0.00787878 0
ZONE T="Ephi", I=14, J=2, DATAPACKING=POINT
0 0 0
0.00186526 0.00060606 -1195.8
0.00373052 0.00121212 -911.627
0.00559578 0.00181818 -736.104
0.00746104 0.00242424 -607.642
0.0093263 0.0030303 -493.227
0.0111916 0.00363636 -376.862
0.0130568 0.00424242 -272.169
0.0149221 0.00484848 -202.429
0.0167873 0.00545454 -167.822
0.0186526 0.0060606 -145.958
0.0205179 0.00666666 -110.233
0.0223831 0.00727272 -47.2394
0.0242484 0.00787878 0
0 0 0
0.0018544 0.000638521 -1160.49
0.0037088 0.00127704 -876.588
0.0055632 0.00191556 -699.873
0.0074176 0.00255408 -571.312
0.00927199 0.0031926 -459.209
0.0111264 0.00383112 -347.839
0.0129808 0.00446965 -250.049
0.0148352 0.00510817 -187.832
0.0166896 0.00574669 -160.118
0.018544 0.00638521 -143.352
0.0203984 0.00702373 -110.221
0.0222528 0.00766225 -47.6771
0.0241072 0.00830077 0
ZONE T="Ephi", I=14, J=2, DATAPACKING=POINT
0 0 0
0.0018544 0.000638521 -1160.49
0.0037088 0.00127704 -876.588
0.0055632 0.00191556 -699.873
0.0074176 0.00255408 -571.312
0.00927199 0.0031926 -459.209
0.0111264 0.00383112 -347.839
0.0129808 0.00446965 -250.049
0.0148352 0.00510817 -187.832
0.0166896 0.00574669 -160.118
0.018544 0.00638521 -143.352
0.0203984 0.00702373 -110.221
0.0222528 0.00766225 -47.6771
0.0241072 0.00830077 0
0 0 0
0.00184297 0.000670787 -1125.17
0.00368595 0.00134157 -841.548
0.00552892 0.00201236 -663.642
0.00737189 0.00268315 -534.983
0.00921486 0.00335394 -425.19
0.0110578 0.00402472 -318.815
0.0129008 0.00469551 -227.929
0.0147438 0.0053663 -173.235
0.0165868 0.00603708 -152.414
0.0184297 0.00670787 -140.746
0.0202727 0.00737866 -110.21
0.0221157 0.00804945 -48.1147
0.0239586 0.00872023 0
ZONE T="Ephi", I=14, J=2, DATAPACKING=POINT
0 0 0
0.00184297 0.000670787 -1125.17
0.00368595 0.00134157 -841.548
0.00552892 0.00201236 -663.642
0.00737189 0.00268315 -534.983
0.00921486 0.00335394 -425.19
0.0110578 0.00402472 -318.815
0.0129008 0.00469551 -227.929
0.0147438 0.0053663 -173.235
0.0165868 0.00603708 -152.414
0.0184297 0.00670787 -140.746
0.0202727 0.00737866 -110.21
0.0221157 0.00804945 -48.1147
0.0239586 0.00872023 0
0 0 0
0.00183099 0.000702849 -1089.86
0.00366197 0.0014057 -806.509
0.00549296 0.00210855 -627.411
0.00732394 0.0028114 -498.654
0.00915493 0.00351425 -391.172
0.0109859 0.0042171 -289.792
0.0128169 0.00491995 -205.809
0.0146479 0.00562279 -158.639
0.0164789 0.00632564 -144.71
0.0183099 0.00702849 -138.141
0.0201408 0.00773134 -110.198
0.0219718 0.00843419 -48.5523
0.0238028 0.00913704 0
ZONE T="Ephi", I=14, J=2, DATAPACKING=POINT
0 0 0
0.00183099 0.000702849 -1089.86
0.00366197 0.0014057 -806.509
0.00549296 0.00210855 -627.411
0.00732394 0.0028114 -498.654
0.00915493 0.00351425 -391.172
0.0109859 0.0042171 -289.792
0.0128169 0.00491995 -205.809
0.0146479 0.00562279 -158.639
0.0164789 0.00632564 -144.71
0.0183099 0.00702849 -138.141
0.0201408 0.00773134 -110.198
0.0219718 0.00843419 -48.5523
0.0238028 0.00913704 0
0 0 0
0.00181844 0.000734697 -1054.55
0.00363688 0.00146939 -771.469
0.00545532 0.00220409 -591.18
0.00727376 0.00293879 -462.325
0.0090922 0.00367349 -357.154
0.0109106 0.00440818 -260.768
0.0127291 0.00514288 -183.69
0.0145475 0.00587758 -144.042
0.016366 0.00661228 -137.006
0.0181844 0.00734697 -135.535
0.0200028 0.00808167 -110.187
0.0218213 0.00881637 -48.99
0.0236397 0.00955107 0
ZONE T="Ephi", I=14, J=2, DATAPACKING=POINT
0 0 0
0.00181844 0.000734697 -1054.55
0.00363688 0.00146939 -771.469
0.00545532 0.00220409 -591.18
0.00727376 0.00293879 -462.325
0.0090922 0.00367349 -357.154
0.0109106 0.00440818 -260.768
0.0127291 0.00514288 -183.69
0.0145475 0.00587758 -144.042
0.016366 0.00661228 -137.006
0.0181844 0.00734697 -135.535
0.0200028 0.00808167 -110.187
0.0218213 0.00881637 -48.99
0.0236397 0.00955107 0
0 0 0
0.00180534 0.000766322 -1019.23
0.00361068 0.00153264 -736.43
0.00541602 0.00229896 -554.949
0.00722136 0.00306529 -425.996
0.0090267 0.00383161 -323.136
0.010832 0.00459793 -231.745
0.0126374 0.00536425 -161.57
0.0144427 0.00613057 -129.445
0.0162481 0.00689689 -129.302
0.0180534 0.00766322 -132.929
0.0198587 0.00842954 -110.176
0.0216641 0.00919586 -49.4276
0.0234694 0.00996218 0
ZONE T="Ephi", I=14, J=2, DATAPACKING=POINT
0 0 0
0.00180534 0.000766322 -1019.23
0.00361068 0.00153264 -736.43
0.00541602 0.00229896 -554.949
0.00722136 0.00306529 -425.996
0.0090267 0.00383161 -323.136
0.010832 0.00459793 -231.745
0.0126374 0.00536425 -161.57
0.0144427 0.00613057 -129.445
0.0162481 0.00689689 -129.302
0.0180534 0.00766322 -132.929
0.0198587 0.00842954 -110.176
0.0216641 0.00919586 -49.4276
0.0234694 0.00996218 0
0 0 0
0.00179169 0.000797712 -983.918
0.00358338 0.00159542 -701.39
0.00537507 0.00239314 -518.718
0.00716677 0.00319085 -389.666
0.00895846 0.00398856 -289.117
0.0107501 0.00478627 -202.722
0.0125418 0.00558399 -139.45
0.0143335 0.0063817 -114.849
0.0161252 0.00717941 -121.598
0.0179169 0.00797712 -130.323
0.0197086 0.00877484 -110.164
0.0215003 0.00957255 -49.8652
0.023292 0.0103703 0
ZONE T="Ephi", I=14, J=2, DATAPACKING=POINT
0 0 0
0.00179169 0.000797712 -983.918
0.00358338 0.00159542 -701.39
0.00537507 0.00239314 -518.718
0.00716677 0.00319085 -389.666
0.00895846 0.00398856 -289.117
0.0107501 0.00478627 -202.722
0.0125418 0.00558399 -139.45
0.0143335 0.0063817 -114.849
0.0161252 0.00717941 -121.598
0.0179169 0.00797712 -130.323
0.0197086 0.00877484 -110.164
0.0215003 0.00957255 -49.8652
0.023292 0.0103703 0
0 0 0
0.0017775 0.00082886 -948.604
0.00355499 0.00165772 -666.351
0.00533249 0.00248658 -482.487
0.00710999 0.00331544 -353.337
0.00888748 0.0041443 -255.099
0.010665 0.00497316 -173.698
0.0124425 0.00580202 -117.33
0.01422 0.00663088 -100.252
0.0159975 0.00745974 -113.894
0.017775 0.0082886 -127.717
0.0195525 0.00911746 -110.153
0.02133 0.00994632 -50.3029
0.0231075 0.0107752 0
ZONE T="Ephi", I=14, J=2, DATAPACKING=POINT
0 0 0
0.0017775 0.00082886 -948.604
0.00355499 0.00165772 -666.351
0.00533249 0.00248658 -482.487
0.00710999 0.00331544 -353.337
0.00888748 0.0041443 -255.099
0.010665 0.00497316 -173.698
0.0124425 0.00580202 -117.33
0.01422 0.00663088 -100.252
0.0159975 0.00745974 -113.894
0.017775 0.0082886 -127.717
0.0195525 0.00911746 -110.153
0.02133 0.00994632 -50.3029
0.0231075 0.0107752 0
0 0 0
0.00176276 0.000859756 -913.289
0.00352552 0.00171951 -631.311
0.00528828 0.00257927 -446.256
0.00705104 0.00343902 -317.008
0.0088138 0.00429878 -221.081
0.0105766 0.00515853 -144.675
0.0123393 0.00601829 -95.2101
0.0141021 0.00687805 -85.6552
0.0158648 0.0077378 -106.19
0.0176276 0.00859756 -125.111
0.0193904 0.00945731 -110.141
0.0211531 0.0103171 -50.7405
0.0229159 0.0111768 0
ZONE T="Ephi", I=14, J=2, DATAPACKING=POINT
0 0 0
0.00176276 0.000859756 -913.289
0.00352552 0.00171951 -631.311
0.00528828 0.00257927 -446.256
0.00705104 0.00343902 -317.008
0.0088138 0.00429878 -221.081
0.0105766 0.00515853 -144.675
0.0123393 0.00601829 -95.2101
0.0141021 0.00687805 -85.6552
0.0158648 0.0077378 -106.19
0.0176276 0.00859756 -125.111
0.0193904 0.00945731 -110.141
0.0211531 0.0103171 -50.7405
0.0229159 0.0111768 0
0 0 0
0.00174749 0.000890389 -877.975
0.00349497 0.00178078 -596.272
0.00524246 0.00267117 -410.025
0.00698995 0.00356156 -280.679
0.00873744 0.00445195 -187.062
0.0104849 0.00534233 -115.651
0.0122324 0.00623272 -73.0902
0.0139799 0.00712311 -71.0585
0.0157274 0.0080135 -98.4866
0.0174749 0.00890389 -122.505
0.0192224 0.00979428 -110.13
0.0209698 0.0106847 -51.1781
0.0227173 0.0115751 0
ZONE T="Ephi", I=14, J=2, DATAPACKING=POINT
0 0 0
0.00174749 0.000890389 -877.975
0.00349497 0.00178078 -596.272
0.00524246 0.00267117 -410.025
0.00698995 0.00356156 -280.679
0.00873744 0.00445195 -187.062
0.0104849 0.00534233 -115.651
0.0122324 0.00623272 -73.0902
0.0139799 0.00712311 -71.0585
0.0157274 0.0080135 -98.4866
0.0174749 0.00890389 -122.505
0.0192224 0.00979428 -110.13
0.0209698 0.0106847 -51.1781
0.0227173 0.0115751 0
0 0 0
0.00173168 0.000920751 -842.661
0.00346336 0.0018415 -561.232
0.00519504 0.00276225 -373.794
0.00692673 0.00368301 -244.349
0.00865841 0.00460376 -153.044
0.0103901 0.00552451 -86.6278
0.0121218 0.00644526 -50.9703
0.0138535 0.00736601 -56.4618
0.0155851 0.00828676 -90.7826
0.0173168 0.00920751 -119.899
0.0190485 0.0101283 -110.118
0.0207802 0.011049 -51.6158
0.0225119 0.0119698 0
ZONE T="Ephi", I=14, J=2, DATAPACKING=POINT
0 0 0
0.00173168 0.000920751 -842.661
0.00346336 0.0018415 -561.232
0.00519504 0.00276225 -373.794
0.00692673 0.00368301 -244.349
0.00865841 0.00460376 -153.044
0.0103901 0.00552451 -86.6278
0.0121218 0.00644526 -50.9703
0.0138535 0.00736601 -56.4618
0.0155851 0.00828676 -90.7826
0.0173168 0.00920751 -119.899
0.0190485 0.0101283 -110.118
0.0207802 0.011049 -51.6158
0.0225119 0.0119698 0
0 0 0
0.00171535 0.000950833 -807.347
0.0034307 0.00190167 -526.193
0.00514605 0.0028525 -337.563
0.00686139 0.00380333 -208.02
0.00857674 0.00475417 -119.026
0.0102921 0.005705 -57.6044
0.0120074 0.00665583 -28.8505
0.0137228 0.00760667 -41.8651
0.0154381 0.0085575 -83.0787
0.0171535 0.00950833 -117.294
0.0188688 0.0104592 -110.107
0.0205842 0.01141 -52.0534
0.0222995 0.0123608 0
ZONE T="Ephi", I=14, J=2, DATAPACKING=POINT
0 0 0
0.00171535 0.000950833 -807.347
0.0034307 0.00190167 -526.193
0.00514605 0.0028525 -337.563
0.00686139 0.00380333 -208.02
0.00857674 0.00475417 -119.026
0.0102921 0.005705 -57.6044
0.0120074 0.00665583 -28.8505
0.0137228 0.00760667 -41.8651
0.0154381 0.0085575 -83.0787
0.0171535 0.00950833 -117.294
0.0188688 0.0104592 -110.107
0.0205842 0.01141 -52.0534
0.0222995 0.0123608 0
0 0 0
0.00169849 0.000980625 -772.033
0.00339699 0.00196125 -491.153
0.00509548 0.00294188 -301.333
0.00679397 0.0039225 -171.691
0.00849246 0.00490313 -85.0077
0.010191 0.00588375 -28.581
0.0118894 0.00686438 -6.73063
0.0135879 0.007845 -27.2683
0.0152864 0.00882563 -75.3748
0.0169849 0.00980625 -114.688
0.0186834 0.0107869 -110.096
0.0203819 0.0117675 -52.491
0.0220804 0.0127481 0
ZONE T="Ephi", I=14, J=2, DATAPACKING=POINT
0 0 0
0.00169849 0.000980625 -772.033
0.00339699 0.00196125 -491.153
0.00509548 0.00294188 -301.333
0.00679397 0.0039225 -171.691
0.00849246 0.00490313 -85.0077
0.010191 0.00588375 -28.581
0.0118894 0.00686438 -6.73063
0.0135879 0.007845 -27.2683
0.0152864 0.00882563 -75.3748
0.0169849 0.00980625 -114.688
0.0186834 0.0107869 -110.096
0.0203819 0.0117675 -52.491
0.0220804 0.0127481 0
0 0 0
0.00168112 0.00101012 -736.719
0.00336224 0.00202024 -456.114
0.00504336 0.00303036 -265.102
0.00672448 0.00404047 -135.362
0.0084056 0.00505059 -50.9894
0.0100867 0.00606071 0.44242
0.0117678 0.00707083 15.3892
0.013449 0.00808095 -12.6716
0.0151301 0.00909107 -67.6709
0.0168112 0.0101012 -112.082
0.0184923 0.0111113 -110.084
0.0201734 0.0121214 -52.9286
0.0218546 0.0131315 0
ZONE T="Ephi", I=14, J=2, DATAPACKING=POINT
0 0 0
0.00168112 0.00101012 -736.719
0.00336224 0.00202024 -456.114
0.00504336 0.00303036 -265.102
0.00672448 0.00404047 -135.362
0.0084056 0.00505059 -50.9894
0.0100867 0.00606071 0.44242
0.0117678 0.00707083 15.3892
0.013449 0.00808095 -12.6716
0.0151301 0.00909107 -67.6709
0.0168112 0.0101012 -112.082
0.0184923 0.0111113 -110.084
0.0201734 0.0121214 -52.9286
0.0218546 0.0131315 0
0 0 0
0.00166323 0.0010393 -701.405
0.00332647 0.00207861 -421.074
0.0049897 0.00311791 -228.871
0.00665294 0.00415722 -99.0324
0.00831617 0.00519652 -16.9711
0.00997941 0.00623583 29.4658
0.0116426 0.00727513 37.5091
0.0133059 0.00831444 1.92508
0.0149691 0.00935374 -59.967
0.0166323 0.010393 -109.476
0.0182956 0.0114323 -110.073
0.0199588 0.0124717 -53.3663
0.0216221 0.013511 0
ZONE T="Ephi", I=14, J=2, DATAPACKING=POINT
0 0 0
0.00166323 0.0010393 -701.405
0.00332647 0.00207861 -421.074
0.0049897 0.00311791 -228.871
0.00665294 0.00415722 -99.0324
0.00831617 0.00519652 -16.9711
0.00997941 0.00623583 29.4658
0.0116426 0.00727513 37.5091
0.0133059 0.00831444 1.92508
0.0149691 0.00935374 -59.967
0.0166323 0.010393 -109.476
0.0182956 0.0114323 -110.073
0.0199588 0.0124717 -53.3663
0.0216221 0.013511 0
0 0 0
0.00164484 0.00106817 -666.091
0.00328969 0.00213635 -386.034
0.00493453 0.00320452 -192.64
0.00657937 0.00427269 -62.7032
0.00822422 0.00534087 17.0471
0.00986906 0.00640904 58.4893
0.0115139 0.00747722 59.6289
0.0131587 0.00854539 16.5218
0.0148036 0.00961356 -52.2631
0.0164484 0.0106817 -106.87
0.0180933 0.0117499 -110.061
0.0197381 0.0128181 -53.8039
0.021383 0.0138863 0
ZONE T="Ephi", I=14, J=2, DATAPACKING=POINT
0 0 0
0.00164484 0.00106817 -666.091
0.00328969 0.00213635 -386.034
0.00493453 0.00320452 -192.64
0.00657937 0.00427269 -62.7032
0.00822422 0.00534087 17.0471
0.00986906 0.00640904 58.4893
0.0115139 0.00747722 59.6289
0.0131587 0.00854539 16.5218
0.0148036 0.00961356 -52.2631
0.0164484 0.0106817 -106.87
0.0180933 0.0117499 -110.061
0.0197381 0.0128181 -53.8039
0.021383 0.0138863 0
0 0 0
0.00162595 0.00109672 -630.777
0.0032519 0.00219343 -350.995
0.00487785 0.00329015 -156.409
0.0065038 0.00438687 -26.3739
0.00812975 0.00548359 51.0654
0.0097557 0.0065803 87.5127
0.0113817 0.00767702 81.7488
0.0130076 0.00877374 31.1185
0.0146336 0.00987046 -44.5592
0.0162595 0.0109672 -104.264
0.0178855 0.0120639 -110.05
0.0195114 0.0131606 -54.2415
0.0211374 0.0142573 0
ZONE T="Ephi", I=14, J=2, DATAPACKING=POINT
0 0 0
0.00162595 0.00109672 -630.777
0.0032519 0.00219343 -350.995
0.00487785 0.00329015 -156.409
0.0065038 0.00438687 -26.3739
0.00812975 0.00548359 51.0654
0.0097557 0.0065803 87.5127
0.0113817 0.00767702 81.7488
0.0130076 0.00877374 31.1185
0.0146336 0.00987046 -44.5592
0.0162595 0.0109672 -104.264
0.0178855 0.0120639 -110.05
0.0195114 0.0131606 -54.2415
0.0211374 0.0142573 0
0 0 0
0.00160656 0.00112493 -595.463
0.00321312 0.00224985 -315.955
0.00481969 0.00337478 -120.178
0.00642625 0.00449971 9.95531
0.00803281 0.00562464 85.0836
0.00963937 0.00674956 116.536
0.0112459 0.00787449 103.869
0.0128525 0.00899942 45.7152
0.0144591 0.0101243 -36.8553
0.0160656 0.0112493 -101.658
0.0176722 0.0123742 -110.038
0.0192787 0.0134991 -54.6792
0.0208853 0.0146241 0
ZONE T="Ephi", I=14, J=2, DATAPACKING=POINT
0 0 0
0.00160656 0.00112493 -595.463
0.00321312 0.00224985 -315.955
0.00481969 0.00337478 -120.178
0.00642625 0.00449971 9.95531
0.00803281 0.00562464 85.0836
0.00963937 0.00674956 116.536
0.0112459 0.00787449 103.869
0.0128525 0.00899942 45.7152
0.0144591 0.0101243 -36.8553
0.0160656 0.0112493 -101.658
0.0176722 0.0123742 -110.038
0.0192787 0.0134991 -54.6792
0.0208853 0.0146241 0
0 0 0
0.00158669 0.00115279 -560.148
0.00317337 0.00230559 -280.916
0.00476006 0.00345838 -83.9468
0.00634674 0.00461118 46.2846
0.00793343 0.00576397 119.102
0.00952011 0.00691677 145.56
0.0111068 0.00806956 125.989
0.0126935 0.00922235 60.3119
0.0142802 0.0103751 -29.1514
0.0158669 0.0115279 -99.0524
0.0174535 0.0126807 -110.027
0.0190402 0.0138335 -55.1168
0.0206269 0.0149863 0
ZONE T="Ephi", I=14, J=2, DATAPACKING=POINT
0 0 0
0.00158669 0.00115279 -560.148
0.00317337 0.00230559 -280.916
0.00476006 0.00345838 -83.9468
0.00634674 0.00461118 46.2846
0.00793343 0.00576397 119.102
0.00952011 0.00691677 145.56
0.0111068 0.00806956 125.989
0.0126935 0.00922235 60.3119
0.0142802 0.0103751 -29.1514
0.0158669 0.0115279 -99.0524